<?xml version="1.0" ?> 
<!-- 
# vtk DataFile Version 3.0
#This file was generated by the deal.II library on 23:53:53 at 2021/5/3
-->
<VTKFile type="UnstructuredGrid" version="0.1" byte_order="LittleEndian">
<UnstructuredGrid>
<FieldData>
<DataArray type="Float32" Name="CYCLE" NumberOfTuples="1" format="ascii">151</DataArray>
<DataArray type="Float32" Name="TIME" NumberOfTuples="1" format="ascii">0.302</DataArray>
</FieldData>
<Piece NumberOfPoints="6420" NumberOfCells="1605" >
  <Points>
    <DataArray type="Float32" NumberOfComponents="3" format="ascii">
-1 -1 0
-0.75 -1 0
-1 -0.75 0
-0.75 -0.75 0
-0.75 -1 0
-0.5 -1 0
-0.75 -0.75 0
-0.5 -0.75 0
-1 -0.75 0
-0.75 -0.75 0
-1 -0.5 0
-0.75 -0.5 0
-1 -0.5 0
-0.75 -0.5 0
-1 -0.25 0
-0.75 -0.25 0
-1 -0.25 0
-0.75 -0.25 0
-1 0 0
-0.75 0 0
0.875 -1 0
1 -1 0
0.875 -0.875 0
1 -0.875 0
-0.25 -0.75 0
-0.125 -0.75 0
-0.25 -0.625 0
-0.125 -0.625 0
0 -1 0
0.125 -1 0
0 -0.875 0
0.125 -0.875 0
0.125 -1 0
0.25 -1 0
0.125 -0.875 0
0.25 -0.875 0
0 -0.875 0
0.125 -0.875 0
0 -0.75 0
0.125 -0.75 0
-0.75 -0.25 0
-0.625 -0.25 0
-0.75 -0.125 0
-0.625 -0.125 0
-0.625 -0.25 0
-0.5 -0.25 0
-0.625 -0.125 0
-0.5 -0.125 0
-0.75 -0.125 0
-0.625 -0.125 0
-0.75 0 0
-0.625 0 0
-0.5 -0.25 0
-0.375 -0.25 0
-0.5 -0.125 0
-0.375 -0.125 0
-0.375 -0.25 0
-0.25 -0.25 0
-0.375 -0.125 0
-0.25 -0.125 0
-0.375 -0.125 0
-0.25 -0.125 0
-0.375 0 0
-0.25 0 0
-0.5 -0.75 0
-0.375 -0.75 0
-0.5 -0.625 0
-0.375 -0.625 0
-0.375 -0.75 0
-0.25 -0.75 0
-0.375 -0.625 0
-0.25 -0.625 0
0.25 -0.875 0
0.375 -0.875 0
0.25 -0.75 0
0.375 -0.75 0
-0.75 0 0
-0.625 0 0
-0.75 0.125 0
-0.625 0.125 0
-0.625 0 0
-0.5 0 0
-0.625 0.125 0
-0.5 0.125 0
-0.75 0.125 0
-0.625 0.125 0
-0.75 0.25 0
-0.625 0.25 0
-1 0.25 0
-0.875 0.25 0
-1 0.375 0
-0.875 0.375 0
-0.875 0.25 0
-0.75 0.25 0
-0.875 0.375 0
-0.75 0.375 0
-1 0.375 0
-0.875 0.375 0
-1 0.5 0
-0.875 0.5 0
-0.5 0 0
-0.375 0 0
-0.5 0.125 0
-0.375 0.125 0
-0.375 0 0
-0.25 0 0
-0.375 0.125 0
-0.25 0.125 0
-1 0.5 0
-0.875 0.5 0
-1 0.625 0
-0.875 0.625 0
-1 0.625 0
-0.875 0.625 0
-1 0.75 0
-0.875 0.75 0
-0.5 -1 0
-0.375 -1 0
-0.5 -0.875 0
-0.375 -0.875 0
-0.375 -1 0
-0.25 -1 0
-0.375 -0.875 0
-0.25 -0.875 0
-0.5 -0.875 0
-0.375 -0.875 0
-0.5 -0.75 0
-0.375 -0.75 0
-0.375 -0.875 0
-0.25 -0.875 0
-0.375 -0.75 0
-0.25 -0.75 0
-0.5 -0.375 0
-0.375 -0.375 0
-0.5 -0.25 0
-0.375 -0.25 0
-0.25 -1 0
-0.125 -1 0
-0.25 -0.875 0
-0.125 -0.875 0
-0.125 -1 0
0 -1 0
-0.125 -0.875 0
0 -0.875 0
-0.125 -0.875 0
0 -0.875 0
-0.125 -0.75 0
0 -0.75 0
-0.75 -0.75 0
-0.625 -0.75 0
-0.75 -0.625 0
-0.625 -0.625 0
-0.625 -0.75 0
-0.5 -0.75 0
-0.625 -0.625 0
-0.5 -0.625 0
-0.75 -0.625 0
-0.625 -0.625 0
-0.75 -0.5 0
-0.625 -0.5 0
-0.625 -0.625 0
-0.5 -0.625 0
-0.625 -0.5 0
-0.5 -0.5 0
-0.75 -0.5 0
-0.625 -0.5 0
-0.75 -0.375 0
-0.625 -0.375 0
-0.625 -0.5 0
-0.5 -0.5 0
-0.625 -0.375 0
-0.5 -0.375 0
-0.75 -0.375 0
-0.625 -0.375 0
-0.75 -0.25 0
-0.625 -0.25 0
-0.625 -0.375 0
-0.5 -0.375 0
-0.625 -0.25 0
-0.5 -0.25 0
-1 0.75 0
-0.875 0.75 0
-1 0.875 0
-0.875 0.875 0
-0.875 0.75 0
-0.75 0.75 0
-0.875 0.875 0
-0.75 0.875 0
-1 0.875 0
-0.875 0.875 0
-1 1 0
-0.875 1 0
-0.875 0.875 0
-0.75 0.875 0
-0.875 1 0
-0.75 1 0
-1 0 0
-0.875 0 0
-1 0.125 0
-0.875 0.125 0
-0.875 0 0
-0.75 0 0
-0.875 0.125 0
-0.75 0.125 0
-1 0.125 0
-0.875 0.125 0
-1 0.25 0
-0.875 0.25 0
0.75 -0.8125 0
0.8125 -0.8125 0
0.75 -0.75 0
0.8125 -0.75 0
0.8125 -0.8125 0
0.875 -0.8125 0
0.8125 -0.75 0
0.875 -0.75 0
0.375 -0.75 0
0.4375 -0.75 0
0.375 -0.6875 0
0.4375 -0.6875 0
0.4375 -0.75 0
0.5 -0.75 0
0.4375 -0.6875 0
0.5 -0.6875 0
0.375 -0.6875 0
0.4375 -0.6875 0
0.375 -0.625 0
0.4375 -0.625 0
0.4375 -0.6875 0
0.5 -0.6875 0
0.4375 -0.625 0
0.5 -0.625 0
0.75 -1 0
0.8125 -1 0
0.75 -0.9375 0
0.8125 -0.9375 0
0.8125 -1 0
0.875 -1 0
0.8125 -0.9375 0
0.875 -0.9375 0
0.75 -0.9375 0
0.8125 -0.9375 0
0.75 -0.875 0
0.8125 -0.875 0
0.8125 -0.9375 0
0.875 -0.9375 0
0.8125 -0.875 0
0.875 -0.875 0
0.3125 -0.625 0
0.375 -0.625 0
0.3125 -0.5625 0
0.375 -0.5625 0
0.25 -0.5625 0
0.3125 -0.5625 0
0.25 -0.5 0
0.3125 -0.5 0
0.3125 -0.5625 0
0.375 -0.5625 0
0.3125 -0.5 0
0.375 -0.5 0
0.375 -0.625 0
0.4375 -0.625 0
0.375 -0.5625 0
0.4375 -0.5625 0
0.5 -0.8125 0
0.5625 -0.8125 0
0.5 -0.75 0
0.5625 -0.75 0
0.5625 -0.8125 0
0.625 -0.8125 0
0.5625 -0.75 0
0.625 -0.75 0
0.625 -0.8125 0
0.6875 -0.8125 0
0.625 -0.75 0
0.6875 -0.75 0
0.6875 -0.8125 0
0.75 -0.8125 0
0.6875 -0.75 0
0.75 -0.75 0
0.875 -0.75 0
0.9375 -0.75 0
0.875 -0.6875 0
0.9375 -0.6875 0
0.9375 -0.75 0
1 -0.75 0
0.9375 -0.6875 0
1 -0.6875 0
0.875 -0.6875 0
0.9375 -0.6875 0
0.875 -0.625 0
0.9375 -0.625 0
0.9375 -0.6875 0
1 -0.6875 0
0.9375 -0.625 0
1 -0.625 0
0.25 -0.125 0
0.3125 -0.125 0
0.25 -0.0625 0
0.3125 -0.0625 0
0.3125 -0.125 0
0.375 -0.125 0
0.3125 -0.0625 0
0.375 -0.0625 0
0.25 -0.0625 0
0.3125 -0.0625 0
0.25 0 0
0.3125 0 0
0.3125 -0.0625 0
0.375 -0.0625 0
0.3125 0 0
0.375 0 0
0.875 -0.875 0
0.9375 -0.875 0
0.875 -0.8125 0
0.9375 -0.8125 0
0.9375 -0.875 0
1 -0.875 0
0.9375 -0.8125 0
1 -0.8125 0
0.875 -0.8125 0
0.9375 -0.8125 0
0.875 -0.75 0
0.9375 -0.75 0
0.9375 -0.8125 0
1 -0.8125 0
0.9375 -0.75 0
1 -0.75 0
-0.125 -0.5 0
-0.0625 -0.5 0
-0.125 -0.4375 0
-0.0625 -0.4375 0
-0.0625 -0.5 0
0 -0.5 0
-0.0625 -0.4375 0
0 -0.4375 0
0 -0.625 0
0.0625 -0.625 0
0 -0.5625 0
0.0625 -0.5625 0
0.0625 -0.625 0
0.125 -0.625 0
0.0625 -0.5625 0
0.125 -0.5625 0
0 -0.5625 0
0.0625 -0.5625 0
0 -0.5 0
0.0625 -0.5 0
0.0625 -0.5625 0
0.125 -0.5625 0
0.0625 -0.5 0
0.125 -0.5 0
0.125 -0.625 0
0.1875 -0.625 0
0.125 -0.5625 0
0.1875 -0.5625 0
0.1875 -0.625 0
0.25 -0.625 0
0.1875 -0.5625 0
0.25 -0.5625 0
0 -0.5 0
0.0625 -0.5 0
0 -0.4375 0
0.0625 -0.4375 0
0.0625 -0.5 0
0.125 -0.5 0
0.0625 -0.4375 0
0.125 -0.4375 0
0 -0.4375 0
0.0625 -0.4375 0
0 -0.375 0
0.0625 -0.375 0
0.125 -0.4375 0
0.1875 -0.4375 0
0.125 -0.375 0
0.1875 -0.375 0
0 -0.375 0
0.0625 -0.375 0
0 -0.3125 0
0.0625 -0.3125 0
0.0625 -0.375 0
0.125 -0.375 0
0.0625 -0.3125 0
0.125 -0.3125 0
0 -0.3125 0
0.0625 -0.3125 0
0 -0.25 0
0.0625 -0.25 0
0.0625 -0.3125 0
0.125 -0.3125 0
0.0625 -0.25 0
0.125 -0.25 0
0 -0.25 0
0.0625 -0.25 0
0 -0.1875 0
0.0625 -0.1875 0
0.0625 -0.25 0
0.125 -0.25 0
0.0625 -0.1875 0
0.125 -0.1875 0
0 -0.1875 0
0.0625 -0.1875 0
0 -0.125 0
0.0625 -0.125 0
0.125 -0.0625 0
0.1875 -0.0625 0
0.125 0 0
0.1875 0 0
0.1875 -0.0625 0
0.25 -0.0625 0
0.1875 0 0
0.25 0 0
0.375 -0.875 0
0.4375 -0.875 0
0.375 -0.8125 0
0.4375 -0.8125 0
0.375 -0.8125 0
0.4375 -0.8125 0
0.375 -0.75 0
0.4375 -0.75 0
0.25 -0.75 0
0.3125 -0.75 0
0.25 -0.6875 0
0.3125 -0.6875 0
0.3125 -0.75 0
0.375 -0.75 0
0.3125 -0.6875 0
0.375 -0.6875 0
0.25 -0.6875 0
0.3125 -0.6875 0
0.25 -0.625 0
0.3125 -0.625 0
0.3125 -0.6875 0
0.375 -0.6875 0
0.3125 -0.625 0
0.375 -0.625 0
0.5 -1 0
0.5625 -1 0
0.5 -0.9375 0
0.5625 -0.9375 0
0.5625 -1 0
0.625 -1 0
0.5625 -0.9375 0
0.625 -0.9375 0
0.5 -0.9375 0
0.5625 -0.9375 0
0.5 -0.875 0
0.5625 -0.875 0
0.5625 -0.9375 0
0.625 -0.9375 0
0.5625 -0.875 0
0.625 -0.875 0
0.625 -1 0
0.6875 -1 0
0.625 -0.9375 0
0.6875 -0.9375 0
0.6875 -1 0
0.75 -1 0
0.6875 -0.9375 0
0.75 -0.9375 0
0.625 -0.9375 0
0.6875 -0.9375 0
0.625 -0.875 0
0.6875 -0.875 0
0.6875 -0.9375 0
0.75 -0.9375 0
0.6875 -0.875 0
0.75 -0.875 0
0 -0.75 0
0.0625 -0.75 0
0 -0.6875 0
0.0625 -0.6875 0
0.0625 -0.75 0
0.125 -0.75 0
0.0625 -0.6875 0
0.125 -0.6875 0
0 -0.6875 0
0.0625 -0.6875 0
0 -0.625 0
0.0625 -0.625 0
0.0625 -0.6875 0
0.125 -0.6875 0
0.0625 -0.625 0
0.125 -0.625 0
0 -0.125 0
0.0625 -0.125 0
0 -0.0625 0
0.0625 -0.0625 0
0.0625 -0.125 0
0.125 -0.125 0
0.0625 -0.0625 0
0.125 -0.0625 0
0.0625 -0.0625 0
0.125 -0.0625 0
0.0625 0 0
0.125 0 0
-0.25 -0.375 0
-0.1875 -0.375 0
-0.25 -0.3125 0
-0.1875 -0.3125 0
-0.1875 -0.375 0
-0.125 -0.375 0
-0.1875 -0.3125 0
-0.125 -0.3125 0
-0.25 -0.3125 0
-0.1875 -0.3125 0
-0.25 -0.25 0
-0.1875 -0.25 0
-0.125 -0.1875 0
-0.0625 -0.1875 0
-0.125 -0.125 0
-0.0625 -0.125 0
-0.0625 -0.1875 0
0 -0.1875 0
-0.0625 -0.125 0
0 -0.125 0
-0.125 -0.125 0
-0.0625 -0.125 0
-0.125 -0.0625 0
-0.0625 -0.0625 0
-0.0625 -0.125 0
0 -0.125 0
-0.0625 -0.0625 0
0 -0.0625 0
-0.25 -0.625 0
-0.1875 -0.625 0
-0.25 -0.5625 0
-0.1875 -0.5625 0
-0.1875 -0.625 0
-0.125 -0.625 0
-0.1875 -0.5625 0
-0.125 -0.5625 0
-0.25 -0.5625 0
-0.1875 -0.5625 0
-0.25 -0.5 0
-0.1875 -0.5 0
-0.1875 -0.5625 0
-0.125 -0.5625 0
-0.1875 -0.5 0
-0.125 -0.5 0
-0.25 -0.5 0
-0.1875 -0.5 0
-0.25 -0.4375 0
-0.1875 -0.4375 0
-0.1875 -0.5 0
-0.125 -0.5 0
-0.1875 -0.4375 0
-0.125 -0.4375 0
-0.625 -0.125 0
-0.5625 -0.125 0
-0.625 -0.0625 0
-0.5625 -0.0625 0
-0.5625 -0.125 0
-0.5 -0.125 0
-0.5625 -0.0625 0
-0.5 -0.0625 0
-0.625 -0.0625 0
-0.5625 -0.0625 0
-0.625 0 0
-0.5625 0 0
-0.5625 -0.0625 0
-0.5 -0.0625 0
-0.5625 0 0
-0.5 0 0
-0.125 -0.75 0
-0.0625 -0.75 0
-0.125 -0.6875 0
-0.0625 -0.6875 0
-0.0625 -0.75 0
0 -0.75 0
-0.0625 -0.6875 0
0 -0.6875 0
-0.125 -0.6875 0
-0.0625 -0.6875 0
-0.125 -0.625 0
-0.0625 -0.625 0
-0.0625 -0.6875 0
0 -0.6875 0
-0.0625 -0.625 0
0 -0.625 0
-0.125 -0.625 0
-0.0625 -0.625 0
-0.125 -0.5625 0
-0.0625 -0.5625 0
-0.0625 0.0625 0
0 0.0625 0
-0.0625 0.125 0
0 0.125 0
-0.5 -0.125 0
-0.4375 -0.125 0
-0.5 -0.0625 0
-0.4375 -0.0625 0
-0.4375 -0.125 0
-0.375 -0.125 0
-0.4375 -0.0625 0
-0.375 -0.0625 0
-0.5 -0.0625 0
-0.4375 -0.0625 0
-0.5 0 0
-0.4375 0 0
-0.4375 -0.0625 0
-0.375 -0.0625 0
-0.4375 0 0
-0.375 0 0
0.125 -0.875 0
0.1875 -0.875 0
0.125 -0.8125 0
0.1875 -0.8125 0
0.1875 -0.875 0
0.25 -0.875 0
0.1875 -0.8125 0
0.25 -0.8125 0
0.125 -0.8125 0
0.1875 -0.8125 0
0.125 -0.75 0
0.1875 -0.75 0
0.1875 -0.8125 0
0.25 -0.8125 0
0.1875 -0.75 0
0.25 -0.75 0
0.125 -0.75 0
0.1875 -0.75 0
0.125 -0.6875 0
0.1875 -0.6875 0
-0.5 -0.625 0
-0.4375 -0.625 0
-0.5 -0.5625 0
-0.4375 -0.5625 0
-0.4375 -0.625 0
-0.375 -0.625 0
-0.4375 -0.5625 0
-0.375 -0.5625 0
-0.5 -0.5625 0
-0.4375 -0.5625 0
-0.5 -0.5 0
-0.4375 -0.5 0
-0.4375 -0.5625 0
-0.375 -0.5625 0
-0.4375 -0.5 0
-0.375 -0.5 0
-0.375 -0.625 0
-0.3125 -0.625 0
-0.375 -0.5625 0
-0.3125 -0.5625 0
-0.3125 -0.625 0
-0.25 -0.625 0
-0.3125 -0.5625 0
-0.25 -0.5625 0
-0.375 -0.5625 0
-0.3125 -0.5625 0
[...]
  <PointData Scalars="scalars">
    <DataArray type="Float32" Name="U" format="ascii">
0 0 0 7.82386e-05 0 0 7.82386e-05 0.000172585 0 7.82386e-05 0 0.000167006 0 0.000167006 0 0.000265774 0 0.000265774 0 0.000368051 0 0 0.000477093 0 0.000361577 0.000541532 0.000509836 0.000758925 0 0 0.000417804 0.000599967 0 0 0.000599967 0.000806451 0.000417804 0.000599967 0.000802939 0.00115765 0.000265774 0.000376031 0.000316913 0.000438462 0.000376031 0.000468502 0.000438462 0.000524219 0.000316913 0.000438462 0.000368051 0.000496204 0.000468502 0.000556602 0.000524219 0.00057623 0.000556602 0.000667023 0.00057623 0.00060973 0.00057623 0.00060973 0.000587082 0.000535327 0.000172585 0.000246262 0.000256639 0.000355535 0.000246262 0.000361577 0.000355535 0.000509836 0.000806451 0.00099127 0.00155656 0.00191699 0.000368051 0.000496204 0.000406627 0.000545808 0.000496204 0.000571937 0.000545808 0.00061184 0.000406627 0.000545808 0.000434166 0.000571764 0 0.000232879 0 0.000235658 0.000232879 0.000434166 0.000235658 0.000432975 0 0.000235658 0 0.000219292 0.000571937 0.000587082 0.00061184 0.000597915 0.000587082 0.000535327 0.000597915 0.000492388 0 0.000219292 0 0.000184923 0 0.000184923 0 0.000135878 0 0 8.62923e-05 0.000125033 0 0 0.000125033 0.000185336 8.62923e-05 0.000125033 0.000172585 0.000246262 0.000125033 0.000185336 0.000246262 0.000361577 0.000405307 0.000518617 0.000468502 0.000556602 0 0 0.000185336 0.000279513 0 0 0.000279513 0.000417804 0.000279513 0.000417804 0.000541532 0.000802939 7.82386e-05 0.000125412 0.000122622 0.00018567 0.000125412 0.000172585 0.00018567 0.000256639 0.000122622 0.00018567 0.000167006 0.000248581 0.00018567 0.000256639 0.000248581 0.000337135 0.000167006 0.000248581 0.00021639 0.000312037 0.000248581 0.000337135 0.000312037 0.000405307 0.00021639 0.000312037 0.000265774 0.000376031 0.000312037 0.000405307 0.000376031 0.000468502 0 0.000135878 0 7.04805e-05 0.000135878 0.000240417 7.04805e-05 0.000119535 0 7.04805e-05 0 0 7.04805e-05 0.000119535 0 0 0 0.000184026 0 0.000216966 0.000184026 0.000368051 0.000216966 0.000406627 0 0.000216966 0 0.000232879 0.00125843 0.00100679 0.00165024 0.0013184 0.00100679 0.000702444 0.0013184 0.000918229 0.00191699 0.00203955 0.00231481 0.00247527 0.00203955 0.00211751 0.00247527 0.00256787 0.00231481 0.00247527 0.0026619 0.0028461 0.00247527 0.00256787 0.0028461 0.00295539 0 0 0.000428988 0.000343371 0 0 0.000343371 0.000238547 0.000428988 0.000343371 0.000851119 0.000681056 0.000343371 0.000238547 0.000681056 0.000477093 0.00242505 0.0026619 0.00266782 0.00293152 0.00237304 0.00266782 0.00250828 0.00282403 0.00266782 0.00293152 0.00282403 0.00309559 0.0026619 0.0028461 0.00293152 0.00313166 0.00162008 0.00162748 0.00211751 0.00212681 0.00162748 0.00157096 0.00212681 0.00205633 0.00157096 0.0014482 0.00205633 0.00189841 0.0014482 0.00125843 0.00189841 0.00165024 0.000918229 0.000471785 0.0011158 0.000573661 0.000471785 0 0.000573661 0 0.0011158 0.000573661 0.00128355 0.000659812 0.000573661 0 0.000659812 0 0.00112912 0.001262 0.000581015 0.000652484 0.001262 0.00138964 0.000652484 0.000714778 0.000581015 0.000652484 0 0 0.000652484 0.000714778 0 0 0.000477093 0.000238547 0.000702444 0.000361294 0.000238547 0 0.000361294 0 0.000702444 0.000361294 0.000918229 0.000471785 0.000361294 0 0.000471785 0 0.000898348 0.00108414 0.000927631 0.00111312 0.00108414 0.00131171 0.00111312 0.00134075 0.00112312 0.00135286 0.00123964 0.00148846 0.00135286 0.00160778 0.00148846 0.00176714 0.00123964 0.00148846 0.00131171 0.00157518 0.00148846 0.00176714 0.00157518 0.00187038 0.00160778 0.00187937 0.00176714 0.00206372 0.00187937 0.00215863 0.00206372 0.00237304 0.00131171 0.00157518 0.00134075 0.00160452 0.00157518 0.00187038 0.00160452 0.00189912 0.00134075 0.00160452 0.0013213 0.00156939 0.00189912 0.00221695 0.00185325 0.00216205 0.0013213 0.00156939 0.00124368 0.00146786 0.00156939 0.00185325 0.00146786 0.0017249 0.00124368 0.00146786 0.00111148 0.00129603 0.00146786 0.0017249 0.00129603 0.00151376 0.00111148 0.00129603 0.000925604 0.00105922 0.00129603 0.00151376 0.00105922 0.00122025 0.000925604 0.00105922 0.000693633 0.000762377 0.00044807 0.000508444 0 0 0.000508444 0.000581015 0 0 0.00099127 0.00105822 0.00145413 0.00156067 0.00145413 0.00156067 0.00191699 0.00203955 0.00155656 0.00173678 0.00187916 0.00211242 0.00173678 0.00191699 0.00211242 0.00231481 0.00187916 0.00211242 0.00215863 0.00242505 0.00211242 0.00231481 0.00242505 0.0026619 0 0 0.000551743 0.000554751 0 0 0.000554751 0.000535639 0.000551743 0.000554751 0.00109281 0.001101 0.000554751 0.000535639 0.001101 0.00106243 0 0 0.000535639 0.00049381 0 0 0.00049381 0.000428988 0.000535639 0.00049381 0.00106243 0.000979535 0.00049381 0.000428988 0.000979535 0.000851119 0.000802939 0.000980293 0.000980332 0.00117918 0.000980293 0.00115765 0.00117918 0.00140139 0.000980332 0.00117918 0.00112312 0.00135286 0.00117918 0.00140139 0.00135286 0.00160778 0.000693633 0.000762377 0.000409387 0.000406277 0.000762377 0.000861572 0.000406277 0.00044807 0.000406277 0.00044807 0 0 0.000676602 0.000787107 0.000683682 0.000776989 0.000787107 0.000930293 0.000776989 0.000898949 0.000683682 0.000776989 0.000667023 0.000737483 0.000749211 0.000818493 0.000634274 0.000653817 0.000818493 0.000925604 0.000653817 0.000693633 0.000634274 0.000653817 0.000514269 0.00046787 0.000653817 0.000693633 0.00046787 0.000409387 0.000509836 0.00063438 0.000581188 0.000693704 0.00063438 0.000758925 0.000693704 0.000843123 0.000581188 0.000693704 0.000623816 0.00074537 0.000693704 0.000843123 0.00074537 0.000898348 0.000623816 0.00074537 0.00066285 0.00077585 0.00074537 0.000898348 0.00077585 0.000927631 0.000438462 0.00048134 0.000467333 0.000514948 0.00048134 0.000524219 0.000514948 0.000543831 0.000467333 0.000514948 0.000496204 0.000534071 0.000514948 0.000543831 0.000534071 0.000571937 0.000541532 0.000672236 0.000650228 0.000804254 0.000672236 0.000802939 0.000804254 0.000980332 0.000650228 0.000804254 0.000758925 0.000923894 0.000804254 0.000980332 0.000923894 0.00112312 0.000758925 0.000923894 0.000843123 0.00102163 0.000195253 0 0.000161289 0 0.000524219 0.000550224 0.000543831 0.000571293 0.000550224 0.00057623 0.000571293 0.000581656 0.000543831 0.000571293 0.000571937 0.00057951 0.000571293 0.000581656 0.00057951 0.000587082 0.000599967 0.000703209 0.000878806 0.00103556 0.000703209 0.000806451 0.00103556 0.00118151 0.000878806 0.00103556 0.00115765 0.00135069 0.00103556 0.00118151 0.00135069 0.00155656 0.00115765 0.00135069 0.00140139 0.00163666 0.000256639 0.000306087 0.000296887 0.000345602 0.000306087 0.000355535 0.000345602 0.000411084 0.000296887 0.000345602 0.000337135 0.000386104 0.000345602 0.000411084 0.000386104 0.000452427 0.000355535 0.000432685 0.000411084 0.000480891 0.000432685 0.000509836 0.000480891 0.000581188 0.000411084 0.000480891 0.000452427 0.000525536 0.000480891 0.000581188 0.000525536 0.000623816 0 0 0.000403225 0.000456575 0 0 0.000456575 0.000496771 0.000403225 0.000456575 0.000806451 0.00089886 0.000456575 0.000496771 0.00089886 0.00099127 0 0 0.000496771 0.00053375 0 0 0.00053375 0.000551743 0.000496771 0.00053375 0.00099127 0.00105822 0.00053375 0.000551743 0.00105822 0.00109281 0.000667023 0.000737483 0.000638377 0.000687621 0.000737483 0.000836368 0.000687621 0.000749211 0.000638377 0.000687621 0.00060973 0.000620148 0.000687621 0.000749211 0.000620148 0.000634274 0.00060973 0.000620148 0.000572529 0.000551205 0.000620148 0.000634274 0.000551205 0.000514269 0.000572529 0.000551205 0.000535327 0.000491782 0.000551205 0.000514269 0.000491782 0.000409572 0.000434166 0.000502965 0.00043357 0.00051844 0.000502965 0.000571764 0.00051844 0.000570911 0.00043357 0.00051844 0.000432975 0.000509734 0.00051844 0.000570911 0.000509734 0.000565923 0.000545808 0.000578824 0.000558786 0.00060064 0.000578824 0.00061184 0.00060064 0.000621737 0.000558786 0.00060064 0.000571764 0.000611389 0.00060064 0.000621737 0.000611389 0.000620821 0.000571764 0.000611389 0.000570911 0.000614055 0.000611389 0.000620821 0.000614055 0.000618866 0.000570911 0.000614055 0.000565923 0.000627998 0.000614055 0.000618866 0.000627998 0.000658257 0.000235658 0.000334316 0.000227475 0.000331694 0.000334316 0.000432975 0.000331694 0.000418949 0.000227475 0.000331694 0.000219292 0.000318939 0.000331694 0.000418949 0.000318939 0.000395949 0.000432975 0.000509734 0.000418949 0.000496909 0.000509734 0.000565923 0.000496909 0.000572091 0.000418949 0.000496909 0.000395949 0.000466089 0.000496909 0.000572091 0.000466089 0.000565344 0.000565923 0.000627998 0.000572091 0.000671869 0.000627998 0.000658257 0.000671869 0.0007554 0.000572091 0.000671869 0.000565344 0.000717089 0.000671869 0.0007554 0.000717089 0.00132305 0.00061184 0.000604878 0.000621737 0.000620723 0.000604878 0.000597915 0.000620723 0.000596952 0.000535327 0.000491782 0.000513858 0.000438632 0.000491782 0.000409572 0.000438632 0.000327071 0.000513858 0.000438632 0.000492388 0.000411627 0.000438632 0.000327071 0.000411627 0.000296392 0.000597915 0.000545152 0.000596952 0.000551078 0.000545152 0.000492388 0.000551078 0.000477869 0.000219292 0.000318939 0.000202108 0.000296609 0.000202108 0.000296609 0.000184923 0.000270407 0.000492388 0.000411627 0.000477869 0.000391035 0.000411627 0.000296392 0.000391035 0.000271796 0.000477869 0.000391035 0.000459328 0.000368206 0.000391035 0.000271796 0.000368206 0.000250917 0.000296392 0.000161289 0.000271796 0.00014361 0.000161289 0 0.00014361 0 0.000271796 0.00014361 0.000250917 0.000130663 0.00014361 0 0.000130663 0 0.000184923 0.000270407 0.000160401 0.000238457 0.000270407 0.000329155 0.000238457 0.000288111 0.000160401 0.000238457 0.000135878 0.000188148 0.000238457 0.000288111 0.000188148 0.000240417 0.000337135 0.000386104 0.000371221 0.000424398 0.000386104 0.000452427 0.000424398 0.000491168 0.000371221 0.000424398 0.000405307 0.000461962 0.000424398 0.000491168 0.000461962 0.000518617 0.000452427 0.000525536 0.000491168 0.000563955 0.000525536 0.000623816 0.000563955 0.00066285 0.000491168 0.000563955 0.000518617 0.000586119 0.000563955 0.00066285 0.000586119 0.000676602 0.000518617 0.000586119 0.00053761 0.000602912 0.000586119 0.000676602 0.000602912 0.000683682 0.00053761 0.000602912 0.000556602 0.000611813 0.000602912 0.000683682 0.000611813 0.000667023 0.000185336 0.000232424 0.000273456 0.000337167 0.000232424 0.000279513 0.000337167 0.000410522 0.000273456 0.000337167 0.000361577 0.000451554 0.000337167 0.000410522 0.000451554 0.000541532 0.000620821 0.000619411 0.000618866 0.000612229 0.000619411 0.000581716 0.000612229 0.000572706 0.000618866 0.000612229 0.000658257 0.000677273 0.000612229 0.000572706 0.000677273 0.000658019 0.00216205 0.00248204 0.00200866 0.00230257 0.0017249 0.00200866 0.00151376 0.00175864 0.000581716 0.000537929 0.000572706 0.000522857 0.000537929 0.000459328 0.000522857 0.000440882 0.000572706 0.000522857 0.000658019 0.000610857 0.000522857 0.000440882 0.000610857 0.000527991 0.000658257 0.000677273 0.0007554 0.000827535 0.000677273 0.000658019 0.000827535 0.000846658 0.0007554 0.000827535 0.00132305 0.00191831 0.000827535 0.000846658 0.00191831 0.00199216 0.000658019 0.000610857 0.000846658 0.00082059 0.000610857 0.000527991 0.00082059 0.00074437 0.000846658 0.00082059 0.00199216 0.00199428 0.00082059 0.00074437 0.00199428 0.00192564 0.00151376 0.00175864 0.00122025 0.00141127 0.00141127 0.00161239 0.000990563 0.00112912 0.000459328 0.000368206 0.000440882 0.000347742 0.000368206 0.000250917 0.000347742 0.000234659 0.000440882 0.000347742 0.000527991 0.000439614 0.000347742 0.000234659 0.000439614 0.000322631 0.000250917 0.000130663 0.000234659 0.000118619 0.000130663 0 0.000118619 0 0.000234659 0.000118619 0.000322631 0.000167889 0.000118619 0 0.000167889 0 0.000527991 0.000439614 0.00074437 0.000656324 0.000439614 0.000322631 0.000656324 0.000500887 0.00074437 0.000656324 0.00192564 0.00184592 0.000656324 0.000500887 0.00184592 0.00164362 0.000322631 0.000167889 0.000500887 0.000271844 0.000167889 0 0.000271844 0 0.000500887 0.000271844 0.00164362 0.00131212 0.000271844 0 0.00131212 0 0.000216966 0.000311796 0.000224922 0.0003307 0.000311796 0.000406627 0.0003307 0.000420396 0.000224922 0.0003307 0.000232879 0.000333522 0.0003307 0.000420396 0.000333522 0.000434166 0.000395949 0.000466089 0.000367022 0.000430889 0.000466089 0.000565344 0.000430889 0.000553579 0.000367022 0.000430889 0.000329155 0.00038438 0.000430889 0.000553579 0.00038438 0.00052337 0.000565344 0.000717089 0.000553579 0.000756848 0.000717089 0.00132305 0.000756848 0.0018854 0.000553579 0.000756848 0.00052337 0.000761464 0.000756848 0.0018854 0.000761464 0.00194247 0.000329155 0.00038438 0.000288111 0.000335369 0.00038438 0.00052337 0.000335369 0.000471875 0.000288111 0.000335369 0.000240417 0.000272732 0.000335369 0.000471875 0.000272732 0.000402479 0.00052337 0.000761464 0.000471875 0.000726426 0.000761464 0.00194247 0.000726426 0.00193275 0.000471875 0.000726426 0.000402479 0.000656985 0.000726426 0.00193275 0.000656985 0.00186604 0.00329526 0.00325975 0.00325533 0.00323234 0.00325975 0.00300011 0.00323234 0.00297863 0.00325533 0.00323234 0.00299618 0.00297777 0.00323234 0.00297863 0.00297777 0.00275372 0.00300011 0.00247772 0.00297863 0.00246984 0.00247772 0 0.00246984 0 0.00297863 0.00246984 0.00275372 0.00234596 0.00246984 0 0.00234596 0 0.00299618 0.00297777 0.00247503 0.00246886 0.00297777 0.00275372 0.00246886 0.00234559 0.00247503 0.00246886 0 0 0.00246886 0.00234559 0 0 0.00275372 0.00234596 0.00234559 0.00211137 0.00234596 0 0.00211137 0 0.00234559 0.00211137 0 0 0.00211137 0 0 0 0.000240417 0.000272732 0.000179976 0.00020523 0.000272732 0.000402479 0.00020523 0.000331874 0.000179976 0.00020523 0.000119535 0.000133405 0.00020523 0.000331874 0.000133405 0.000245927 0.000402479 0.000656985 0.000331874 0.000580299 0.000656985 0.00186604 0.000580299 0.00179231 0.000331874 0.000580299 0.000245927 0.000447253 0.000580299 0.00179231 0.000447253 0.00160536 0.000119535 0.000133405 5.97673e-05 6.37889e-05 0.000133405 0.000245927 6.37889e-05 0.000126912 5.97673e-05 6.37889e-05 0 0 6.37889e-05 0.000126912 0 0 0.000245927 0.000447253 0.000126912 0.000243087 0.000447253 0.00160536 0.000243087 0.00129133 0.000126912 0.000243087 0 0 0.000243087 0.00129133 0 0 0.00211751 0.00212681 0.00256787 0.0025805 0.00212681 0.00205633 0.0025805 0.00248997 0.00256787 0.0025805 0.00295539 0.00296822 0.0013184 0.000918229 0.00159756 0.0011158 0.00159756 0.0011158 0.00184354 0.00128355 0.00132305 0.00191831 0.0018854 0.00300374 0.00191831 0.00199216 0.00300374 0.00313332 0.0018854 0.00300374 0.00194247 0.00311478 0.00300374 0.00313332 0.00311478 0.00328617 0.00199216 0.00199428 0.00313332 0.00316364 0.00199428 0.00192564 0.00316364 0.00310275 0.00313332 0.00316364 0.00328617 0.00334218 0.00316364 0.00310275 0.00334218 0.00328802 0.00194247 0.00311478 0.00193275 0.00313096 0.00311478 0.00328617 0.00313096 0.00332747 0.00193275 0.00313096 0.00186604 0.00306788 0.00313096 0.00332747 0.00306788 0.00326887 0.00184354 0.00128355 0.00203021 0.00141362 0.000659812 0 0.00072635 0 0.00072635 0 0.000770119 0 0.00250828 0.00282403 0.00254831 0.0028704 0.00254831 0.0028704 0.00248204 0.00279042 0.00200914 0.00226035 0.00161239 0.00180792 0.00198738 0.00213194 0.00138964 0.00148633 0.00328617 0.00334218 0.00332747 0.00339172 0.00334218 0.00328802 0.00339172 0.00333902 0.00332747 0.00339172 0.00326887 0.00333331 0.00339172 0.00333902 0.00333331 0.00329526 0.000714778 0.000763183 0 0 0.000763183 0.000794489 0 0 0.00192564 0.00184592 0.00310275 0.00303343 0.00184592 0.00164362 0.00303343 0.00278351 0.00310275 0.00303343 0.00328802 0.00320874 0.00303343 0.00278351 0.00320874 0.00294162 0.00164362 0.00131212 0.00278351 0.00235162 0.00131212 0 0.00235162 0 0.00278351 0.00235162 0.00294162 0.00244684 0.00235162 0 0.00244684 0 0.00294162 0.00244684 0.00298676 0.00248842 0.00244684 0 0.00248842 0 0.00298676 0.00248842 0.00300011 0.00247772 0.00248842 0 0.00247772 0 0.00186604 0.00306788 0.00179231 0.00299973 0.00306788 0.00326887 0.00299973 0.00318768 0.00179231 0.00299973 0.00160536 0.00275888 0.00299973 0.00318768 0.00275888 0.00292602 0.00160536 0.00275888 0.00129133 0.00233791 0.00275888 0.00292602 0.00233791 0.00243789 0.00129133 0.00233791 0 0 0.00233791 0.00243789 0 0 0.00292602 0.00297903 0.00243789 0.00248351 0.00297903 0.00299618 0.00248351 0.00247503 0.00243789 0.00248351 0 0 0.00248351 0.00247503 0 0 0.00177522 0.00156773 0.00156921 0.00138272 0.00156773 0.00134099 0.00138272 0.00118201 0.00134099 0.00109895 0.00118201 0.000970567 0.00156921 0.00138272 0.00134324 0.00118288 0.00134324 0.00118288 0.00110139 0.000971813 0.00138272 0.00118201 0.00118288 0.00101095 0.00118201 0.000970567 0.00101095 0.000830848 0.00118288 0.00101095 0.000971813 0.000831308 0.00101095 0.000830848 0.000831308 0.0006825 0.000293431 0 0.000259269 0 0.000259269 0 0.000224043 0 0.000851119 0.000766087 0.00105145 0.000960129 0.000766087 0.000681056 0.000960129 0.00084102 0.00105145 0.000960129 0.00125843 0.00113261 0.000960129 0.00084102 0.00113261 0.00100679 0.000294306 0.000259805 0 0 0.000259805 0.000224348 0 0 0.000355974 0.000176189 0.000272399 0.000130181 0.000176189 0 0.000130181 0 0.000272399 0.000130181 0.000184593 8.84697e-05 0.000130181 0 8.84697e-05 0 0.00035622 0.000272467 0.000176345 0.000130243 0.000272467 0.000184593 0.000130243 8.84855e-05 0.000176345 0.000130243 0 0 0.000130243 8.84855e-05 0 0 0.000184593 8.84697e-05 8.84855e-05 4.37966e-05 8.84697e-05 0 4.37966e-05 0 8.84855e-05 4.37966e-05 0 0 4.37966e-05 0 0 0 0.000681056 0.000579074 0.00084102 0.000725277 0.000579074 0.000477093 0.000725277 0.000589769 0.00084102 0.000725277 0.00100679 0.000854619 0.000725277 0.000589769 0.000854619 0.000702444 0.0025805 0.00253524 0.00277436 0.00274407 0.00253524 0.00248997 0.00274407 0.00268382 0.00277436 0.00274407 0.00296822 0.00292667 0.00274407 0.00268382 0.00292667 0.00286452 0.00215863 0.00229184 0.00226584 0.00242296 0.00229184 0.00242505 0.00242296 0.00254644 0.00226584 0.00242296 0.00237304 0.00252043 0.00242296 0.00254644 0.00252043 0.00266782 0.0028461 0.00290075 0.00298888 0.0030661 0.00290075 0.00295539 0.0030661 0.00310644 0.00298888 0.0030661 0.00313166 0.00319822 0.0030661 0.00310644 0.00319822 0.00324564 0.00248997 0.0024066 0.00268382 0.00259576 0.0024066 0.00229298 0.00259576 0.00247918 0.00268382 0.00259576 0.00286452 0.00276968 0.00259576 0.00247918 0.00276968 0.00264341 0.00229298 0.00216057 0.00247918 0.00232918 0.00216057 0.00199282 0.00232918 0.00215488 0.00247918 0.00232918 0.00264341 0.00248635 0.00232918 0.00215488 0.00248635 0.00229851 0.00293152 0.00303159 0.00301355 0.00313652 0.00303159 0.00313166 0.00313652 0.0032331 0.00301355 0.00313652 0.00309559 0.0032087 0.00313652 0.0032331 0.0032087 0.00330801 0.00324564 0.0032715 0.00335976 0.00337977 0.0032715 0.00326106 0.00337977 0.00337583 0.00337977 0.00337583 0.00346181 0.00345595 0.00326106 0.00322614 0.00337583 0.00333663 0.00322614 0.00315406 0.00333663 0.0032624 0.00337583 0.00333663 0.00345595 0.00341626 0.00333663 0.0032624 0.00341626 0.00333976 0.00313166 0.00319822 0.0032331 0.00331337 0.00319822 0.00324564 0.00331337 0.00335976 0.0032331 0.00331337 0.00330801 0.00338658 0.00331337 0.00335976 0.00338658 0.0034325 0.00315406 0.00304849 0.0032624 0.0031557 0.00304849 0.00291086 0.0031557 0.00301054 0.0032624 0.0031557 0.00333976 0.00322845 0.0031557 0.00301054 0.00322845 0.00308177 0.00345595 0.00341626 0.00350393 0.00345642 0.00341626 0.00333976 0.00345642 0.00338302 0.00291086 0.00273601 0.00301054 0.00283434 0.00273601 0.00253146 0.00283434 0.00261841 0.00301054 0.00283434 0.00308177 0.0028969 0.00283434 0.00261841 0.0028969 0.00268175 0.00349831 0.00352079 0.00347185 0.00349274 0.00347185 0.00349274 0.00340412 0.00342585 0.00349274 0.00348187 0.00342585 0.00342877 0.00348187 0.00343476 0.00342877 0.00338316 0.00343476 0.00336834 0.00338316 0.00330904 0.00333976 0.00322845 0.00338302 0.00327463 0.003