# vtk DataFile Version 3.0
#This file was generated by the deal.II library on 2021/4/23 at 0:45:42
ASCII
DATASET UNSTRUCTURED_GRID

FIELD FieldData 2
CYCLE 1 1 int
90
TIME 1 1 double
0.18
POINTS 7080 double
-1 -1 0
-0.75 -1 0
-1 -0.75 0
-0.75 -0.75 0
-0.75 -1 0
-0.5 -1 0
-0.75 -0.75 0
-0.5 -0.75 0
-1 -0.75 0
-0.75 -0.75 0
-1 -0.5 0
-0.75 -0.5 0
0.75 -1 0
1 -1 0
0.75 -0.75 0
1 -0.75 0
0.75 -0.25 0
1 -0.25 0
0.75 0 0
1 0 0
-0.75 -0.25 0
-0.625 -0.25 0
-0.75 -0.125 0
-0.625 -0.125 0
-0.5 -0.25 0
-0.375 -0.25 0
-0.5 -0.125 0
-0.375 -0.125 0
-0.375 -0.25 0
-0.25 -0.25 0
-0.375 -0.125 0
-0.25 -0.125 0
0 -0.75 0
0.125 -0.75 0
0 -0.625 0
0.125 -0.625 0
-1 0.125 0
-0.875 0.125 0
-1 0.25 0
-0.875 0.25 0
-0.75 -0.5 0
-0.625 -0.5 0
-0.75 -0.375 0
-0.625 -0.375 0
-0.625 -0.5 0
-0.5 -0.5 0
-0.625 -0.375 0
-0.5 -0.375 0
-0.75 -0.375 0
-0.625 -0.375 0
-0.75 -0.25 0
-0.625 -0.25 0
-0.75 -0.75 0
-0.625 -0.75 0
-0.75 -0.625 0
-0.625 -0.625 0
-0.625 -0.75 0
-0.5 -0.75 0
-0.625 -0.625 0
-0.5 -0.625 0
-0.75 -0.625 0
-0.625 -0.625 0
-0.75 -0.5 0
-0.625 -0.5 0
-0.625 -0.625 0
-0.5 -0.625 0
-0.625 -0.5 0
-0.5 -0.5 0
-0.25 -0.625 0
-0.125 -0.625 0
-0.25 -0.5 0
-0.125 -0.5 0
-0.125 -0.625 0
0 -0.625 0
-0.125 -0.5 0
0 -0.5 0
-1 -0.25 0
-0.875 -0.25 0
-1 -0.125 0
-0.875 -0.125 0
-1 -0.125 0
-0.875 -0.125 0
-1 0 0
-0.875 0 0
-0.5 -0.5 0
-0.375 -0.5 0
-0.5 -0.375 0
-0.375 -0.375 0
-0.375 -0.5 0
-0.25 -0.5 0
-0.375 -0.375 0
-0.25 -0.375 0
-0.25 -0.5 0
-0.125 -0.5 0
-0.25 -0.375 0
-0.125 -0.375 0
-0.25 -0.375 0
-0.125 -0.375 0
-0.25 -0.25 0
-0.125 -0.25 0
-0.125 -0.375 0
0 -0.375 0
-0.125 -0.25 0
0 -0.25 0
0 -1 0
0.125 -1 0
0 -0.875 0
0.125 -0.875 0
0.125 -1 0
0.25 -1 0
0.125 -0.875 0
0.25 -0.875 0
0 -0.875 0
0.125 -0.875 0
0 -0.75 0
0.125 -0.75 0
0.25 -1 0
0.375 -1 0
0.25 -0.875 0
0.375 -0.875 0
0.375 -1 0
0.5 -1 0
0.375 -0.875 0
0.5 -0.875 0
0.25 -0.875 0
0.375 -0.875 0
0.25 -0.75 0
0.375 -0.75 0
0.375 -0.875 0
0.5 -0.875 0
0.375 -0.75 0
0.5 -0.75 0
0.25 -0.75 0
0.375 -0.75 0
0.25 -0.625 0
0.375 -0.625 0
0.375 -0.75 0
0.5 -0.75 0
0.375 -0.625 0
0.5 -0.625 0
0.25 -0.625 0
0.375 -0.625 0
0.25 -0.5 0
0.375 -0.5 0
0.375 -0.625 0
0.5 -0.625 0
0.375 -0.5 0
0.5 -0.5 0
0.5 -1 0
0.625 -1 0
0.5 -0.875 0
0.625 -0.875 0
0.625 -1 0
0.75 -1 0
0.625 -0.875 0
0.75 -0.875 0
0.5 -0.875 0
0.625 -0.875 0
0.5 -0.75 0
0.625 -0.75 0
0.625 -0.875 0
0.75 -0.875 0
0.625 -0.75 0
0.75 -0.75 0
-0.5 -1 0
-0.375 -1 0
-0.5 -0.875 0
-0.375 -0.875 0
-0.375 -1 0
-0.25 -1 0
-0.375 -0.875 0
-0.25 -0.875 0
-0.5 -0.875 0
-0.375 -0.875 0
-0.5 -0.75 0
-0.375 -0.75 0
-0.375 -0.875 0
-0.25 -0.875 0
-0.375 -0.75 0
-0.25 -0.75 0
-0.25 -0.25 0
-0.125 -0.25 0
-0.25 -0.125 0
-0.125 -0.125 0
0.5 -0.75 0
0.625 -0.75 0
0.5 -0.625 0
0.625 -0.625 0
0.625 -0.75 0
0.75 -0.75 0
0.625 -0.625 0
0.75 -0.625 0
0.5 -0.625 0
0.625 -0.625 0
0.5 -0.5 0
0.625 -0.5 0
0.625 -0.625 0
0.75 -0.625 0
0.625 -0.5 0
0.75 -0.5 0
-1 0.25 0
-0.875 0.25 0
-1 0.375 0
-0.875 0.375 0
0.75 -0.75 0
0.875 -0.75 0
0.75 -0.625 0
0.875 -0.625 0
0.875 -0.75 0
1 -0.75 0
0.875 -0.625 0
1 -0.625 0
0.75 -0.625 0
0.875 -0.625 0
0.75 -0.5 0
0.875 -0.5 0
0.875 -0.625 0
1 -0.625 0
0.875 -0.5 0
1 -0.5 0
0.25 -0.5 0
0.375 -0.5 0
0.25 -0.375 0
0.375 -0.375 0
0.375 -0.5 0
0.5 -0.5 0
0.375 -0.375 0
0.5 -0.375 0
0.25 -0.375 0
0.375 -0.375 0
0.25 -0.25 0
0.375 -0.25 0
0.375 -0.375 0
0.5 -0.375 0
0.375 -0.25 0
0.5 -0.25 0
0.125 -0.25 0
0.25 -0.25 0
0.125 -0.125 0
0.25 -0.125 0
0.125 -0.125 0
0.25 -0.125 0
0.125 0 0
0.25 0 0
0.25 -0.25 0
0.375 -0.25 0
0.25 -0.125 0
0.375 -0.125 0
0.375 -0.25 0
0.5 -0.25 0
0.375 -0.125 0
0.5 -0.125 0
0.25 -0.125 0
0.375 -0.125 0
0.25 0 0
0.375 0 0
0.375 -0.125 0
0.5 -0.125 0
0.375 0 0
0.5 0 0
0.5 -0.5 0
0.625 -0.5 0
0.5 -0.375 0
0.625 -0.375 0
0.625 -0.5 0
0.75 -0.5 0
0.625 -0.375 0
0.75 -0.375 0
0.5 -0.375 0
0.625 -0.375 0
0.5 -0.25 0
0.625 -0.25 0
0.625 -0.375 0
0.75 -0.375 0
0.625 -0.25 0
0.75 -0.25 0
0.75 -0.5 0
0.875 -0.5 0
0.75 -0.375 0
0.875 -0.375 0
0.875 -0.5 0
1 -0.5 0
0.875 -0.375 0
1 -0.375 0
0.75 -0.375 0
0.875 -0.375 0
0.75 -0.25 0
0.875 -0.25 0
0.875 -0.375 0
1 -0.375 0
0.875 -0.25 0
1 -0.25 0
0.5 -0.25 0
0.625 -0.25 0
0.5 -0.125 0
0.625 -0.125 0
0.625 -0.25 0
0.75 -0.25 0
0.625 -0.125 0
0.75 -0.125 0
0.5 -0.125 0
0.625 -0.125 0
0.5 0 0
0.625 0 0
0.625 -0.125 0
0.75 -0.125 0
0.625 0 0
0.75 0 0
-0.25 -1 0
-0.125 -1 0
-0.25 -0.875 0
-0.125 -0.875 0
-0.125 -1 0
0 -1 0
-0.125 -0.875 0
0 -0.875 0
-0.25 -0.875 0
-0.125 -0.875 0
-0.25 -0.75 0
-0.125 -0.75 0
-0.125 -0.875 0
0 -0.875 0
-0.125 -0.75 0
0 -0.75 0
-0.5 -0.75 0
-0.375 -0.75 0
-0.5 -0.625 0
-0.375 -0.625 0
-0.375 -0.75 0
-0.25 -0.75 0
-0.375 -0.625 0
-0.25 -0.625 0
-0.5 -0.625 0
-0.375 -0.625 0
-0.5 -0.5 0
-0.375 -0.5 0
-0.375 -0.625 0
-0.25 -0.625 0
-0.375 -0.5 0
-0.25 -0.5 0
-1 -0.5 0
-0.875 -0.5 0
-1 -0.375 0
-0.875 -0.375 0
-0.875 -0.5 0
-0.75 -0.5 0
-0.875 -0.375 0
-0.75 -0.375 0
-1 -0.375 0
-0.875 -0.375 0
-1 -0.25 0
-0.875 -0.25 0
-0.875 -0.375 0
-0.75 -0.375 0
-0.875 -0.25 0
-0.75 -0.25 0
-0.5625 0.25 0
-0.5 0.25 0
-0.5625 0.3125 0
-0.5 0.3125 0
-0.625 0.3125 0
-0.5625 0.3125 0
-0.625 0.375 0
-0.5625 0.375 0
-0.5625 0.3125 0
-0.5 0.3125 0
-0.5625 0.375 0
-0.5 0.375 0
-0.75 0.375 0
-0.6875 0.375 0
-0.75 0.4375 0
-0.6875 0.4375 0
-0.6875 0.375 0
-0.625 0.375 0
-0.6875 0.4375 0
-0.625 0.4375 0
-0.75 0.4375 0
-0.6875 0.4375 0
-0.75 0.5 0
-0.6875 0.5 0
-0.6875 0.4375 0
-0.625 0.4375 0
-0.6875 0.5 0
-0.625 0.5 0
-0.625 0.375 0
-0.5625 0.375 0
-0.625 0.4375 0
-0.5625 0.4375 0
-0.8125 0.75 0
-0.75 0.75 0
-0.8125 0.8125 0
-0.75 0.8125 0
-0.8125 0.8125 0
-0.75 0.8125 0
-0.8125 0.875 0
-0.75 0.875 0
-0.125 0.25 0
-0.0625 0.25 0
-0.125 0.3125 0
-0.0625 0.3125 0
-0.0625 0.25 0
0 0.25 0
-0.0625 0.3125 0
0 0.3125 0
-0.125 0.3125 0
-0.0625 0.3125 0
-0.125 0.375 0
-0.0625 0.375 0
-0.0625 0.3125 0
0 0.3125 0
-0.0625 0.375 0
0 0.375 0
-0.8125 0.5 0
-0.75 0.5 0
-0.8125 0.5625 0
-0.75 0.5625 0
-0.6875 0.875 0
-0.625 0.875 0
-0.6875 0.9375 0
-0.625 0.9375 0
-0.75 0.9375 0
-0.6875 0.9375 0
-0.75 1 0
-0.6875 1 0
-0.6875 0.9375 0
-0.625 0.9375 0
-0.6875 1 0
-0.625 1 0
-0.625 0 0
-0.5625 0 0
-0.625 0.0625 0
-0.5625 0.0625 0
-0.5625 0 0
-0.5 0 0
-0.5625 0.0625 0
-0.5 0.0625 0
-0.625 0.0625 0
-0.5625 0.0625 0
-0.625 0.125 0
-0.5625 0.125 0
-0.75 0.125 0
-0.6875 0.125 0
-0.75 0.1875 0
-0.6875 0.1875 0
-0.75 0.1875 0
-0.6875 0.1875 0
-0.75 0.25 0
-0.6875 0.25 0
-0.6875 0.1875 0
-0.625 0.1875 0
-0.6875 0.25 0
-0.625 0.25 0
-0.875 0.25 0
-0.8125 0.25 0
-0.875 0.3125 0
-0.8125 0.3125 0
-0.8125 0.25 0
-0.75 0.25 0
-0.8125 0.3125 0
-0.75 0.3125 0
-0.875 0.3125 0
-0.8125 0.3125 0
-0.875 0.375 0
-0.8125 0.375 0
-0.8125 0.3125 0
-0.75 0.3125 0
-0.8125 0.375 0
-0.75 0.375 0
-1 0.375 0
-0.9375 0.375 0
-1 0.4375 0
-0.9375 0.4375 0
-0.9375 0.375 0
-0.875 0.375 0
-0.9375 0.4375 0
-0.875 0.4375 0
-1 0.4375 0
-0.9375 0.4375 0
-1 0.5 0
-0.9375 0.5 0
-0.9375 0.4375 0
-0.875 0.4375 0
-0.9375 0.5 0
-0.875 0.5 0
-0.875 0.375 0
-0.8125 0.375 0
-0.875 0.4375 0
-0.8125 0.4375 0
-0.75 0.25 0
-0.6875 0.25 0
-0.75 0.3125 0
-0.6875 0.3125 0
-0.6875 0.25 0
-0.625 0.25 0
-0.6875 0.3125 0
-0.625 0.3125 0
-0.75 0.3125 0
-0.6875 0.3125 0
-0.75 0.375 0
-0.6875 0.375 0
-0.6875 0.3125 0
-0.625 0.3125 0
-0.6875 0.375 0
-0.625 0.375 0
-0.125 0 0
-0.0625 0 0
-0.125 0.0625 0
-0.0625 0.0625 0
-0.125 0.0625 0
-0.0625 0.0625 0
-0.125 0.125 0
-0.0625 0.125 0
-0.0625 0.0625 0
0 0.0625 0
-0.0625 0.125 0
0 0.125 0
-0.0625 0.125 0
0 0.125 0
-0.0625 0.1875 0
0 0.1875 0
-0.0625 0.1875 0
0 0.1875 0
-0.0625 0.25 0
0 0.25 0
-1 0.75 0
-0.9375 0.75 0
-1 0.8125 0
-0.9375 0.8125 0
-1 0.8125 0
-0.9375 0.8125 0
-1 0.875 0
-0.9375 0.875 0
-0.875 0.9375 0
-0.8125 0.9375 0
-0.875 1 0
-0.8125 1 0
-0.8125 0.9375 0
-0.75 0.9375 0
-0.8125 1 0
-0.75 1 0
-0.0625 0.375 0
0 0.375 0
-0.0625 0.4375 0
0 0.4375 0
-0.0625 0.4375 0
0 0.4375 0
-0.0625 0.5 0
0 0.5 0
-0.5 0.25 0
-0.4375 0.25 0
-0.5 0.3125 0
-0.4375 0.3125 0
-0.75 0.5 0
-0.6875 0.5 0
-0.75 0.5625 0
-0.6875 0.5625 0
-0.625 0.9375 0
-0.5625 0.9375 0
-0.625 1 0
-0.5625 1 0
-0.5625 0.9375 0
-0.5 0.9375 0
-0.5625 1 0
-0.5 1 0
-1 0.5 0
-0.9375 0.5 0
-1 0.5625 0
-0.9375 0.5625 0
-1 0.5625 0
-0.9375 0.5625 0
-1 0.625 0
-0.9375 0.625 0
-1 0.625 0
-0.9375 0.625 0
-1 0.6875 0
-0.9375 0.6875 0
-1 0.6875 0
-0.9375 0.6875 0
-1 0.75 0
-0.9375 0.75 0
-0.75 -0.125 0
-0.6875 -0.125 0
-0.75 -0.0625 0
-0.6875 -0.0625 0
-0.6875 -0.125 0
-0.625 -0.125 0
-0.6875 -0.0625 0
-0.625 -0.0625 0
-0.6875 -0.0625 0
-0.625 -0.0625 0
-0.6875 0 0
-0.625 0 0
-0.5625 -0.0625 0
-0.5 -0.0625 0
-0.5625 0 0
-0.5 0 0
0.125 -0.75 0
0.1875 -0.75 0
0.125 -0.6875 0
0.1875 -0.6875 0
0.1875 -0.75 0
0.25 -0.75 0
0.1875 -0.6875 0
0.25 -0.6875 0
0.125 -0.6875 0
0.1875 -0.6875 0
0.125 -0.625 0
0.1875 -0.625 0
0.1875 -0.6875 0
0.25 -0.6875 0
0.1875 -0.625 0
0.25 -0.625 0
0 -0.625 0
0.0625 -0.625 0
0 -0.5625 0
0.0625 -0.5625 0
0.0625 -0.625 0
0.125 -0.625 0
0.0625 -0.5625 0
0.125 -0.5625 0
0 -0.5625 0
0.0625 -0.5625 0
0 -0.5 0
0.0625 -0.5 0
0.0625 -0.5625 0
0.125 -0.5625 0
0.0625 -0.5 0
0.125 -0.5 0
-0.5 -0.125 0
-0.4375 -0.125 0
-0.5 -0.0625 0
-0.4375 -0.0625 0
-0.4375 -0.125 0
-0.375 -0.125 0
-0.4375 -0.0625 0
-0.375 -0.0625 0
-0.5 -0.0625 0
-0.4375 -0.0625 0
-0.5 0 0
-0.4375 0 0
-0.4375 -0.0625 0
-0.375 -0.0625 0
-0.4375 0 0
-0.375 0 0
-0.375 -0.125 0
-0.3125 -0.125 0
-0.375 -0.0625 0
-0.3125 -0.0625 0
-0.3125 -0.125 0
-0.25 -0.125 0
-0.3125 -0.0625 0
-0.25 -0.0625 0
-0.375 -0.0625 0
-0.3125 -0.0625 0
-0.375 0 0
-0.3125 0 0
-0.3125 -0.0625 0
-0.25 -0.0625 0
-0.3125 0 0
-0.25 0 0
0.125 -0.625 0
0.1875 -0.625 0
0.125 -0.5625 0
0.1875 -0.5625 0
0.1875 -0.625 0
0.25 -0.625 0
0.1875 -0.5625 0
0.25 -0.5625 0
0.125 -0.5625 0
0.1875 -0.5625 0
0.125 -0.5 0
0.1875 -0.5 0
0.1875 -0.5625 0
0.25 -0.5625 0
0.1875 -0.5 0
0.25 -0.5 0
-0.625 -0.25 0
-0.5625 -0.25 0
-0.625 -0.1875 0
-0.5625 -0.1875 0
-0.5625 -0.25 0
-0.5 -0.25 0
-0.5625 -0.1875 0
-0.5 -0.1875 0
-0.625 -0.1875 0
-0.5625 -0.1875 0
-0.625 -0.125 0
-0.5625 -0.125 0
-0.5625 -0.1875 0
-0.5 -0.1875 0
-0.5625 -0.125 0
-0.5 -0.125 0
0 -0.5 0
0.0625 -0.5 0
0 -0.4375 0
0.0625 -0.4375 0
[...]
POINT_DATA 7080
SCALARS U double 1
LOOKUP_TABLE default
0 0 0 3.66471e-05 0 0 3.66471e-05 0.000106318 0 3.66471e-05 0 7.50816e-05 0 0 0.000334209 0 0.000340188 0 0 0 0.000178715 0.000271504 0.000321105 0.000478518 0.000361884 0.000431192 0.000607433 0.000672101 0.000431192 0.000466026 0.000672101 0.000637332 0.000380889 0.000456022 0.000506537 0.000599721 0 0.000492825 0 0.000769323 7.50816e-05 0.000126392 0.000109448 0.000174026 0.000126392 0.000190082 0.000174026 0.000248059 0.000109448 0.000174026 0.000178715 0.000271504 3.66471e-05 7.14827e-05 5.58644e-05 9.60893e-05 7.14827e-05 0.000106318 9.60893e-05 0.000150149 5.58644e-05 9.60893e-05 7.50816e-05 0.000126392 9.60893e-05 0.000150149 0.000126392 0.000190082 0.000304526 0.000401153 0.000357345 0.000458731 0.000401153 0.000506537 0.000458731 0.000563207 0 8.76215e-05 0 0.000156556 0 0.000156556 0 0.000287036 0.000190082 0.000267309 0.000248059 0.000323495 0.000267309 0.000357345 0.000323495 0.000397481 0.000357345 0.000458731 0.000397481 0.000475233 0.000397481 0.000475233 0.000466026 0.000477211 0.000475233 0.000552304 0.000477211 0.000482604 0 0 0.000203769 0.00024478 0 0 0.00024478 0.000275588 0.000203769 0.00024478 0.000380889 0.000456022 0 0 0.000275588 0.000288741 0 0 0.000288741 0.000277868 0.000275588 0.000288741 0.000511923 0.00053511 0.000288741 0.000277868 0.00053511 0.000514855 0.000511923 0.00053511 0.00067366 0.000702613 0.00053511 0.000514855 0.000702613 0.000675528 0.00067366 0.000702613 0.000736343 0.000765408 0.000702613 0.000675528 0.000765408 0.000735119 0 0 0.000277868 0.000239781 0 0 0.000239781 0.000167104 0.000277868 0.000239781 0.000514855 0.000445072 0.000239781 0.000167104 0.000445072 0.000334209 0 0 5.31591e-05 8.37773e-05 0 0 8.37773e-05 0.000119015 5.31591e-05 8.37773e-05 0.000106318 0.00015878 8.37773e-05 0.000119015 0.00015878 0.000224478 0.000466026 0.000477211 0.000637332 0.000508009 0.000514855 0.000445072 0.000675528 0.000585428 0.000445072 0.000334209 0.000585428 0.000431899 0.000675528 0.000585428 0.000735119 0.00063628 0.000585428 0.000431899 0.00063628 0.000470303 0 0.000769323 0 0.00107031 0.000334209 0.000167104 0.000431899 0.000229531 0.000167104 0 0.000229531 0 0.000431899 0.000229531 0.000470303 0.000250207 0.000229531 0 0.000250207 0 0.000736343 0.000765408 0.00068933 0.000712264 0.000765408 0.000735119 0.000712264 0.000682815 0.00068933 0.000712264 0.000535384 0.000548939 0.000712264 0.000682815 0.000548939 0.000525148 0.000503319 0.000535384 0.000295284 0.000293332 0.000295284 0.000293332 0 0 0.000535384 0.000548939 0.000293332 0.000298603 0.000548939 0.000525148 0.000298603 0.000285149 0.000293332 0.000298603 0 0 0.000298603 0.000285149 0 0 0.000735119 0.00063628 0.000682815 0.000591209 0.00063628 0.000470303 0.000591209 0.000436021 0.000682815 0.000591209 0.000525148 0.000453086 0.000591209 0.000436021 0.000453086 0.000340188 0.000470303 0.000250207 0.000436021 0.0002317 0.000250207 0 0.0002317 0 0.000436021 0.0002317 0.000340188 0.000170094 0.0002317 0 0.000170094 0 0.000525148 0.000453086 0.000285149 0.000245368 0.000453086 0.000340188 0.000245368 0.000170094 0.000285149 0.000245368 0 0 0.000245368 0.000170094 0 0 0 0 0.000119015 0.000159965 0 0 0.000159965 0.000203769 0.000119015 0.000159965 0.000224478 0.000298909 0.000159965 0.000203769 0.000298909 0.000380889 0.000106318 0.00015878 0.000150149 0.000219085 0.00015878 0.000224478 0.000219085 0.000304526 0.000150149 0.000219085 0.000190082 0.000267309 0.000219085 0.000304526 0.000267309 0.000357345 0 3.75408e-05 0 5.26163e-05 3.75408e-05 7.50816e-05 5.26163e-05 0.000109448 0 5.26163e-05 0 8.76215e-05 5.26163e-05 0.000109448 8.76215e-05 0.000178715 0.00265049 0.00290015 0.00319148 0.00349183 0.00279999 0.00319148 0.00326346 0.00372531 0.00319148 0.00349183 0.00372531 0.00407724 0.00218179 0.00273836 0.0024587 0.00308486 0.00273836 0.00326346 0.00308486 0.0036821 0.0024587 0.00308486 0.00266841 0.00335573 0.00308486 0.0036821 0.00335573 0.00400473 0.00326346 0.00372531 0.0036821 0.00420323 0.00174063 0.00235377 0.00142056 0.0019195 0.00142056 0.0019195 0.00100259 0.00135472 0.00148618 0.000768638 0.00178998 0.000928339 0.000768638 0 0.000928339 0 0.00178998 0.000928339 0.0021015 0.00108892 0.000928339 0 0.00108892 0 0.00197951 0.00266841 0.00206559 0.00278749 0.00170872 0.0020482 0.00088553 0.00106188 0.000700214 0.00088553 0 0 0.00088553 0.00106188 0 0 0.000863897 0.000981953 0.00114047 0.00129688 0.000981953 0.00107309 0.00129688 0.0014169 0.00114047 0.00129688 0.0014838 0.00168299 0.00100136 0.00124815 0.00126709 0.00158286 0.00126709 0.00158286 0.0015638 0.00195709 0.00158286 0.00188114 0.00195709 0.00232481 0.000769323 0.00116521 0.000919817 0.00139525 0.00116521 0.0015638 0.00139525 0.0018758 0.000919817 0.00139525 0.00107031 0.00162147 0.00139525 0.0018758 0.00162147 0.00218179 0 0.000535155 0 0.000597332 0.000535155 0.00107031 0.000597332 0.00120356 0 0.000597332 0 0.000647179 0.000597332 0.00120356 0.000647179 0.00130441 0.00107031 0.00162147 0.00120356 0.00182293 0.0015638 0.00195709 0.0018758 0.00235054 0.00195709 0.00232481 0.00235054 0.00279999 0.0018758 0.00235054 0.00218179 0.00273836 0.00235054 0.00279999 0.00273836 0.00326346 0.000629543 0.000369206 0.000759472 0.000405733 0.000759472 0.000405733 0.000955043 0.000497048 0.000405733 0 0.000497048 0 0.000497048 0 0.000618406 0 0.000618406 0 0.000768638 0 0 0.000568838 0 0.000463355 0 0.000463355 0 0.000326209 0.000341839 0.00051751 0 0 0.00051751 0.000700214 0 0 0.00108892 0 0.001233 0 0.001233 0 0.00135045 0 0.00290015 0.00303704 0.00349183 0.00366094 0.00266841 0.00335573 0.00278749 0.0035055 0.00106188 0.00121637 0 0 0.00121637 0.00134107 0 0 0 0.000647179 0 0.000676634 0 0.000676634 0 0.000675171 0 0.000675171 0 0.000640193 0 0.000640193 0 0.000568838 0.000321105 0.000399812 0.000435052 0.000542722 0.000399812 0.000478518 0.000542722 0.000643001 0.000542722 0.000643001 0.00072657 0.000863897 0.000736703 0.000806287 0.000981953 0.00107309 0.000456022 0.000481437 0.000527871 0.000571063 0.000481437 0.000511923 0.000571063 0.000592791 0.000527871 0.000571063 0.000599721 0.000635169 0.000571063 0.000592791 0.000635169 0.00067366 0.000506537 0.000553129 0.000534872 0.000592598 0.000553129 0.000599721 0.000592598 0.000639406 0.000534872 0.000592598 0.000563207 0.000610849 0.000592598 0.000639406 0.000610849 0.00065779 0.000607433 0.000639767 0.000806287 0.000852302 0.000639767 0.000672101 0.000852302 0.000865902 0.000806287 0.000852302 0.00107309 0.00113263 0.000852302 0.000865902 0.00113263 0.00114084 0.000672101 0.000654717 0.000865902 0.000844543 0.000654717 0.000637332 0.000844543 0.000781614 0.000865902 0.000844543 0.00114084 0.0010972 0.000844543 0.000781614 0.0010972 0.000997042 0.000599721 0.000635169 0.000639406 0.000681258 0.000635169 0.00067366 0.000681258 0.000705002 0.000639406 0.000681258 0.00065779 0.000696821 0.000681258 0.000705002 0.000696821 0.000736343 0.000271504 0.00032629 0.000375011 0.000419916 0.00032629 0.000361884 0.000419916 0.000484658 0.000375011 0.000419916 0.000478518 0.000557553 0.000419916 0.000484658 0.000557553 0.000607433 0.000563207 0.000610849 0.000564944 0.000610725 0.000610849 0.00065779 0.000610725 0.000652667 0.000564944 0.000610725 0.000552304 0.000587901 0.000610725 0.000652667 0.000587901 0.000624558 0.00065779 0.000696821 0.000652667 0.000691225 0.000696821 0.000736343 0.000691225 0.000712837 0.000652667 0.000691225 0.000624558 0.00065576 0.000691225 0.000712837 0.00065576 0.00068933 0.000156556 0.000243035 0.000221796 0.000325165 0.000243035 0.000321105 0.000325165 0.000435052 0.000221796 0.000325165 0.000287036 0.000436533 0.000325165 0.000435052 0.000436533 0.00058326 0.000552304 0.000587901 0.000517454 0.000547912 0.000587901 0.000624558 0.000547912 0.00057414 0.000517454 0.000547912 0.000482604 0.000487269 0.000547912 0.00057414 0.000487269 0.000503319 0.000624558 0.00065576 0.00057414 0.000599775 0.00065576 0.00068933 0.000599775 0.000612357 0.00057414 0.000599775 0.000503319 0.000519352 0.000599775 0.000612357 0.000519352 0.000535384 0 0.000143518 0 0.000189591 0.000143518 0.000287036 0.000189591 0.000381593 0 0.000189591 0 0.000246412 0.000189591 0.000381593 0.000246412 0.000492825 0.000492825 0.000747359 0.000631074 0.000945706 0.000631074 0.000945706 0.000769323 0.00116521 0.000945706 0.00126709 0.00116521 0.0015638 0.000637332 0.000572671 0.000781614 0.000682626 0.000572671 0.000508009 0.000682626 0.000547937 0.000781614 0.000682626 0.000997042 0.000841164 0.000682626 0.000547937 0.000841164 0.000629543 0.00135045 0 0.00141954 0 0.00141954 0 0.00142378 0 0.000508009 0.000426211 0.000547937 0.000393756 0.000547937 0.000393756 0.000629543 0.000369206 0.00072657 0.000863897 0.000962425 0.00114047 0.000962425 0.00114047 0.00124815 0.0014838 0.000287036 0.000436533 0.000381593 0.000575702 0.000436533 0.00058326 0.000575702 0.000770243 0.000381593 0.000575702 0.000492825 0.000747359 0.000575702 0.000770243 0.000747359 0.00100136 0.000174026 0.000211042 0.000222765 0.000256097 0.000211042 0.000248059 0.000256097 0.000294648 0.000222765 0.000256097 0.000271504 0.00032629 0.000256097 0.000294648 0.00032629 0.000361884 0.000224478 0.000261693 0.000264502 0.000310583 0.000261693 0.000298909 0.000310583 0.000356411 0.000264502 0.000310583 0.000304526 0.000352839 0.000310583 0.000356411 0.000352839 0.000401153 0.000298909 0.000339899 0.000356411 0.000402695 0.000339899 0.000380889 0.000402695 0.000443713 0.000356411 0.000402695 0.000401153 0.000453845 0.000402695 0.000443713 0.000453845 0.000506537 0.00134107 0.00141168 0 0 8.76215e-05 0.000133168 0.000122089 0.000179297 0.000133168 0.000178715 0.000179297 0.00024991 0.000122089 0.000179297 0.000156556 0.000243035 0.000179297 0.00024991 0.000243035 0.000321105 0.000248059 0.000285777 0.000294648 0.000331247 0.000285777 0.000323495 0.000331247 0.000365467 0.000294648 0.000331247 0.000361884 0.000396538 0.000331247 0.000365467 0.000396538 0.000431192 0.000323495 0.000360488 0.000365467 0.000397737 0.000360488 0.000397481 0.000397737 0.000431754 0.000365467 0.000397737 0.000431192 0.000448609 0.000397737 0.000431754 0.000448609 0.000466026 0.000701707 0 0.000366149 0 0.000701646 0.000366149 0 0 0.000366149 0 0 0 0.000458731 0.000510969 0.000466982 0.000517785 0.000510969 0.000563207 0.000517785 0.000564944 0.000466982 0.000517785 0.000475233 0.000513768 0.000517785 0.000564944 0.000513768 0.000552304 0.00024478 0.000260184 0.000350401 0.000379076 0.000260184 0.000275588 0.000379076 0.000393756 0.000350401 0.000379076 0.000456022 0.000481437 0.000379076 0.000393756 0.000481437 0.000511923 0.000477211 0.000479908 0.00049261 0.000454614 0.000479908 0.000482604 0.000454614 0.000426846 0.00049261 0.000454614 0.000508009 0.000426211 0.000454614 0.000426846 0.000426211 0.000352372 0 0.000326209 0 0.000168884 0.000326209 0.000658012 0.000168884 0.000341839 0 0.000168884 0 0 0.000168884 0.000341839 0 0 0.000482604 0.000487269 0.000426846 0.000410457 0.000487269 0.000503319 0.000410457 0.000399302 0.000426846 0.000410457 0.000352372 0.00030867 0.000410457 0.000399302 0.00030867 0.000295284 0.00030867 0.000295284 0.000178333 0.000147642 0.000178333 0.000147642 0 0 0.00253109 0.00217767 0.00274842 0.00236668 0.00217767 0.00178998 0.00236668 0.00194574 0.00236668 0.00194574 0.00255296 0.0021015 0.00362759 0.00333027 0.00388982 0.00355319 0.00333027 0.00296323 0.00355319 0.00317 0.00388982 0.00355319 0.00411132 0.0037735 0.00355319 0.00317 0.0037735 0.00335912 0.00296323 0.00255296 0.00317 0.00272905 0.00255296 0.0021015 0.00272905 0.00223932 0.00317 0.00272905 0.00335912 0.00289029 0.00260476 0.00199198 0.00267422 0.00205066 0.00199198 0.00135045 0.00205066 0.001385 0.00267422 0.00205066 0.00273722 0.00209619 0.00205066 0.001385 0.00209619 0.00141954 0.00209619 0.00141954 0.00211636 0.00142166 0.00211636 0.00142166 0.00210838 0.00142378 0.00232481 0.00249988 0.0025624 0.00274739 0.00249988 0.00265049 0.00274739 0.00292099 0.0025624 0.00274739 0.00279999 0.00299574 0.00274739 0.00292099 0.00299574 0.00319148 0.00411132 0.0037735 0.00432453 0.00396048 0.0037735 0.00335912 0.00396048 0.00352337 0.00432453 0.00396048 0.00450367 0.00412101 0.00396048 0.00352337 0.00412101 0.00367995 0.00352337 0.003042 0.00367995 0.00316133 0.003042 0.00249318 0.00316133 0.00260476 0.00270439 0.00206431 0.00262128 0.00200132 0.00134295 0.00116454 0.00150626 0.00130248 0.00116454 0.000955043 0.00130248 0.00106607 0.00150626 0.00130248 0.00169332 0.00146318 0.00130248 0.00106607 0.00146318 0.0011979 0.00262128 0.00200132 0.00250039 0.00190772 0.00250039 0.00190772 0.00233961 0.00178569 0.00114326 0.00143395 0.0010486 0.00131801 0.00143395 0.00174063 0.00131801 0.0015806 0.0010486 0.00131801 0.000929722 0.00116528 0.00131801 0.0015806 0.00116528 0.00142056 0.0021015 0.00159521 0.00223932 0.00171468 0.00159521 0.00108892 0.00171468 0.00116096 0.00171468 0.00116096 0.00181894 0.001233 0.00181894 0.001233 0.00191284 0.00129173 0.00249318 0.00191284 0.00260476 0.00199198 0.00191284 0.00129173 0.00199198 0.00135045 0.000929722 0.00116528 0.000803736 0.00100993 0.00116528 0.00142056 0.00100993 0.00121158 0.000803736 0.00100993 0.000658012 0.000823969 0.00100993 0.00121158 0.000823969 0.00100259 0.00258657 0.00265802 0.0019776 0.00203879 0.00265802 0.00272897 0.00203879 0.00208986 0.0019776 0.00203879 0.00134107 0.00137638 0.00203879 0.00208986 0.00137638 0.00141168 0.00275039 0.00274505 0.00210319 0.00209625 0.00208986 0.00210319 0.00141168 0.00142757 0.00210319 0.00209625 0.00142757 0.00141997 0.00141168 0.00142757 0.00070584 0.000715945 0.00142757 0.00141997 0.000715945 0.00071731 0.00070584 0.000715945 0 0 0.000715945 0.00071731 0 0 0.00274505 0.00270478 0.00209625 0.00206114 0.00270478 0.00261715 0.00206114 0.00199793 0.00209625 0.00206114 0.00141997 0.00139857 0.00261715 0.00249929 0.00199793 0.00190643 0.00249929 0.0023383 0.00190643 0.00178465 0.00141997 0.00139857 0.00071731 0.000703944 0.00139857 0.00135109 0.000703944 0.000684513 0.00071731 0.000703944 0 0 0.000703944 0.000684513 0 0 0.00183945 0.00189638 0.00207272 0.00213703 0.00189638 0.00192693 0.00213703 0.00217223 0.00207272 0.00213703 0.00233573 0.00240715 0.00213703 0.00217223 0.00240715 0.0024476 0.00130441 0.00163446 0.00134131 0.00168329 0.00163446 0.00197951 0.00168329 0.00202255 0.00134131 0.00168329 0.00136002 0.0017052 0.00168329 0.00202255 0.0017052 0.00206559 0.00233961 0.00178569 0.00214851 0.00163638 0.00214851 0.00163638 0.00191405 0.00146008 0.00163638 0.00111301 0.00146008 0.000985309 0.00372531 0.00390128 0.00396427 0.00417275 0.00390128 0.00407724 0.00417275 0.00434761 0.00396427 0.00417275 0.00420323 0.00441884 0.00417275 0.00434761 0.00441884 0.00460434 0.00191405 0.00146008 0.00164778 0.00125597 0.00164778 0.00125597 0.00135721 0.00103565 0.00125597 0.000854711 0.00103565 0.000701707 0.0036821 0.00394267 0.00384341 0.00413705 0.00394267 0.00420323 0.00413705 0.00440269 0.00384341 0.00413705 0.00400473 0.00429894 0.00413705 0.00440269 0.00429894 0.00457556 0.0023383 0.00214778 0.00178465 0.00163586 0.00214778 0.00191369 0.00163586 0.00145975 0.00163586 0.00145975 0.0011126 0.000985048 0.00191369 0.00164768 0.00145975 0.00125581 0.00164768 0.00135721 0.00125581 0.0010356 0.00125581 0.0010356 0.000854581 0.000701646 0.00420323 0.00441884 0.00440269 0.00463062 0.00163608 0.0015079 0.00185005 0.00169413 0.00185005 0.00169413 0.00207507 0.00189883 0.00169413 0.00150626 0.00189883 0.00169332 0.00135721 0.00103565 0.0010356 0.000791674 0.00103565 0.000701707 0.000791674 0.000533928 0.0010356 0.000791674 0.000701646 0.000533897 0.000791674 0.000533928 0.000533897 0.000366149 0.00169332 0.00146318 0.00189005 0.00162638 0.00146318 0.0011979 0.00162638 0.00133288 0.00189005 0.00162638 0.00209925 0.00180301 0.00162638 0.00133288 0.00180301 0.00148618 0.00136002 0.0017052 0.00137059 0.0017202 0.0017052 0.00206559 0.0017202 0.00208146 0.00137059 0.0017202 0.00135761 0.00170375 0.0017202 0.00208146 0.00170375 0.00206196 0.00456478 0.00459796 0.00483672 0.00488125 0.00459796 0.00458236 0.00488125 0.00485038 0.00135761 0.00170375 0.00133562 0.00167645 0.00170375 0.00206196 0.00167645 0.00202901 0.00133562 0.00167645 0.00128684 0.00161521 0.00167645 0.00202901 0.00161521 0.00195602 0.00483672 0.00488125 0.00507604 0.00511222 0.00488125 0.00485038 0.00511222 0.00509486 0.00233573 0.00240715 0.00260142 0.00268265 0.00240715 0.0024476 0.00268265 0.00273128 0.00260142 0.00268265 0.00290015 0.0029686 0.00268265 0.00273128 0.0029686 0.00303704 0.00246109 0.00244988 0.00275237 0.00274176 0.00213901 0.00207615 0.00240185 0.00233081 0.00450092 0.00479031 0.00452591 0.00482928 0.00452591 0.00482928 0.00450767 0.00479477 0.00479031 0.00504528 0.00482928 0.00507574 0.00482928 0.00507574 0.00479477 0.00505464 0.00270676 0.00297554 0.00241364 0.00265573 0.00241364 0.00265573 0.00207318 0.00228614 0.00207318 0.00228614 0.00170872 0.00187846 0.00228614 0.00248866 0.00187846 0.0020482 0.0020482 0.00219842 0.00155504 0.00168335 0.00219842 0.00234373 0.00168335 0.00179669 0.00155504 0.00168335 0.00106188 0.00113913 0.00168335 0.00179669 0.00113913 0.00121637 0.00246883 0.00258657 0.00189197 0.0019776 0.00179669 0.00189197 0.00121637 0.00127872 0.00189197 0.0019776 0.00127872 0.00134107 0.00353766 0.00381987 0.00324684 0.00348847 0.00381987 0.00405746 0.00348847 0.00372326 0.00324684 0.00348847 0.00288891 0.0031115 0.00348847 0.00372326 0.0031115 0.00331514 0.00405746 0.00428329 0.00372326 0.00392256 0.00428329 0.00447249 0.00392256 0.00409315 0.00372326 0.00392256 0.00331514 0.00348607 0.00392256 0.00409315 0.00348607 0.00364984 0.00288891 0.0031115 0.00248866 0.00267875 0.0031115 0.00331514 0.00267875 0.00285127 0.00248866 0.00267875 0.0020482 0.00219842 0.00300882 0.00313583 0.00246883 0.00258657 0.00501896 0.00517491 0.00516478 0.00532989 0.00517491 0.00527558 0.00532989 0.00542862 0.00516478 0.00532989 0.00525764 0.00542077 0.00532989 0.00542862 0.00542077 0.00553943 0.00527558 0.0053182 0.00542862 0.00549011 0.0053182 0.00529619 0.00549011 0.00545013 0.00542862 0.00549011 0.00553943 0.00557327 0.00525764 0.00542077 0.00529432 0.00547635 0.00542077 0.00553943 0.00547635 0.00556728 0.00529432 0.00547635 0.00526829 0.00543205 0.00519838 0.00504835 0.00537111 0.00520056 0.00504835 0.00480061 0.00520056 0.00496736 0.00480061 0.00450367 0.00496736 0.00463872 0.00516787 0.00535022 0.00501652 0.00517803 0.00501652 0.00517803 0.00476873 0.0049442 0.00476873 0.0049442 0.00447249 0.00461629 0.00206196 0.00241846 0.00202901 0.00237837 0.00241846 0.00278078 0.00237837 0.00273732 0.00202901 0.00237837 0.00195602 0.00229249 0.00237837 0.00273732 0.00229249 0.00263831 0.00128684 0.00161521 0.00122866 0.00154268 0.00161521 0.00195602 0.00154268 0.0018687 0.00122866 0.00154268 0.00114326 0.00143395 0.00154268 0.0018687 0.00143395 0.00174063 0.00129688 0.00135689 0.00148994 0.00155415 0.00135689 0.0014169 0.00155415 0.00161286 0.00148994 0.00155415 0.00168299 0.0017733 0.00155415 0.00161286 0.0017733 0.00183945 0.00194352 0.00192588 0.0021909 0.00218174 0.00217223 0.0021909 0.0024476 0.00246109 0.0021909 0.00218174 0.00246109 0.00244988 0.00124815 0.00136597 0.0014155 0.00154455 0.00136597 0.0014838 0.00154455 0.00167062 0.0014155 0.00154455 0.00158286 0.001732 0.00154455 0.00167062 0.001732 0.00188114 0.0014838 0.00158339 0.00167062 0.00179268 0.00158339 0.00168299 0.00179268 0.00189902 0.00167062 0.00179268 0.00188114 0.0020194 0.00179268 0.00189902 0.0020194 0.00213953 0.00168299 0.0017733 0.00189902 0.00199721 0.0017733 0.00183945 0.00199721 0.00207272 0.00189902 0.00199721 0.00213953 0.0022502 0.00199721 0.00207272 0.0022502 0.00233573 0.00188114 0.0020194 0.00210297 0.00224948 0.0020194 0.00213953 0.00224948 0.00238373 0.00210297 0.00224948 0.00232481 0.00249988 0.00224948 0.00238373 0.00249988 0.00265049 0.00206559 0.00242654 0.00208146 0.00244022 0.00242654 0.00278749 0.00244022 0.00279879 0.00208146 0.00244022 0.00206196 0.00241846 0.00135472 0.00152985 0.00103966 0.00116827 0.00152985 0.00170872 0.001168