<?xml version="1.0" ?> 
<!-- 
# vtk DataFile Version 3.0
#This file was generated by the deal.II library on 21:44:29 at 2021/4/29
-->
<VTKFile type="UnstructuredGrid" version="0.1" byte_order="LittleEndian">
<UnstructuredGrid>
<Piece NumberOfPoints="65536" NumberOfCells="16384" >
  <Points>
    <DataArray type="Float32" NumberOfComponents="3" format="ascii">
-1 -1 0
-0.984375 -1 0
-1 -0.984375 0
-0.984375 -0.984375 0
-0.984375 -1 0
-0.96875 -1 0
-0.984375 -0.984375 0
-0.96875 -0.984375 0
-1 -0.984375 0
-0.984375 -0.984375 0
-1 -0.96875 0
-0.984375 -0.96875 0
-0.984375 -0.984375 0
-0.96875 -0.984375 0
-0.984375 -0.96875 0
-0.96875 -0.96875 0
-0.96875 -1 0
-0.953125 -1 0
-0.96875 -0.984375 0
-0.953125 -0.984375 0
-0.953125 -1 0
-0.9375 -1 0
-0.953125 -0.984375 0
-0.9375 -0.984375 0
-0.96875 -0.984375 0
-0.953125 -0.984375 0
-0.96875 -0.96875 0
-0.953125 -0.96875 0
-0.953125 -0.984375 0
-0.9375 -0.984375 0
-0.953125 -0.96875 0
-0.9375 -0.96875 0
-1 -0.96875 0
-0.984375 -0.96875 0
-1 -0.953125 0
-0.984375 -0.953125 0
-0.984375 -0.96875 0
-0.96875 -0.96875 0
-0.984375 -0.953125 0
-0.96875 -0.953125 0
-1 -0.953125 0
-0.984375 -0.953125 0
-1 -0.9375 0
-0.984375 -0.9375 0
-0.984375 -0.953125 0
-0.96875 -0.953125 0
-0.984375 -0.9375 0
-0.96875 -0.9375 0
-0.96875 -0.96875 0
-0.953125 -0.96875 0
-0.96875 -0.953125 0
-0.953125 -0.953125 0
-0.953125 -0.96875 0
-0.9375 -0.96875 0
-0.953125 -0.953125 0
-0.9375 -0.953125 0
-0.96875 -0.953125 0
-0.953125 -0.953125 0
-0.96875 -0.9375 0
-0.953125 -0.9375 0
-0.953125 -0.953125 0
-0.9375 -0.953125 0
-0.953125 -0.9375 0
-0.9375 -0.9375 0
-0.9375 -1 0
-0.921875 -1 0
-0.9375 -0.984375 0
-0.921875 -0.984375 0
-0.921875 -1 0
-0.90625 -1 0
-0.921875 -0.984375 0
-0.90625 -0.984375 0
-0.9375 -0.984375 0
-0.921875 -0.984375 0
-0.9375 -0.96875 0
-0.921875 -0.96875 0
-0.921875 -0.984375 0
-0.90625 -0.984375 0
-0.921875 -0.96875 0
-0.90625 -0.96875 0
-0.90625 -1 0
-0.890625 -1 0
-0.90625 -0.984375 0
-0.890625 -0.984375 0
-0.890625 -1 0
-0.875 -1 0
-0.890625 -0.984375 0
-0.875 -0.984375 0
-0.90625 -0.984375 0
-0.890625 -0.984375 0
-0.90625 -0.96875 0
-0.890625 -0.96875 0
-0.890625 -0.984375 0
-0.875 -0.984375 0
-0.890625 -0.96875 0
-0.875 -0.96875 0
-0.9375 -0.96875 0
-0.921875 -0.96875 0
-0.9375 -0.953125 0
-0.921875 -0.953125 0
-0.921875 -0.96875 0
-0.90625 -0.96875 0
-0.921875 -0.953125 0
-0.90625 -0.953125 0
-0.9375 -0.953125 0
-0.921875 -0.953125 0
-0.9375 -0.9375 0
-0.921875 -0.9375 0
-0.921875 -0.953125 0
-0.90625 -0.953125 0
-0.921875 -0.9375 0
-0.90625 -0.9375 0
-0.90625 -0.96875 0
-0.890625 -0.96875 0
-0.90625 -0.953125 0
-0.890625 -0.953125 0
-0.890625 -0.96875 0
-0.875 -0.96875 0
-0.890625 -0.953125 0
-0.875 -0.953125 0
-0.90625 -0.953125 0
-0.890625 -0.953125 0
-0.90625 -0.9375 0
-0.890625 -0.9375 0
-0.890625 -0.953125 0
-0.875 -0.953125 0
-0.890625 -0.9375 0
-0.875 -0.9375 0
-1 -0.9375 0
-0.984375 -0.9375 0
-1 -0.921875 0
-0.984375 -0.921875 0
-0.984375 -0.9375 0
-0.96875 -0.9375 0
-0.984375 -0.921875 0
-0.96875 -0.921875 0
-1 -0.921875 0
-0.984375 -0.921875 0
-1 -0.90625 0
-0.984375 -0.90625 0
-0.984375 -0.921875 0
-0.96875 -0.921875 0
-0.984375 -0.90625 0
-0.96875 -0.90625 0
-0.96875 -0.9375 0
-0.953125 -0.9375 0
-0.96875 -0.921875 0
-0.953125 -0.921875 0
-0.953125 -0.9375 0
-0.9375 -0.9375 0
-0.953125 -0.921875 0
-0.9375 -0.921875 0
-0.96875 -0.921875 0
-0.953125 -0.921875 0
-0.96875 -0.90625 0
-0.953125 -0.90625 0
-0.953125 -0.921875 0
-0.9375 -0.921875 0
-0.953125 -0.90625 0
-0.9375 -0.90625 0
-1 -0.90625 0
-0.984375 -0.90625 0
-1 -0.890625 0
-0.984375 -0.890625 0
-0.984375 -0.90625 0
-0.96875 -0.90625 0
-0.984375 -0.890625 0
-0.96875 -0.890625 0
-1 -0.890625 0
-0.984375 -0.890625 0
-1 -0.875 0
-0.984375 -0.875 0
-0.984375 -0.890625 0
-0.96875 -0.890625 0
-0.984375 -0.875 0
-0.96875 -0.875 0
-0.96875 -0.90625 0
-0.953125 -0.90625 0
-0.96875 -0.890625 0
-0.953125 -0.890625 0
-0.953125 -0.90625 0
-0.9375 -0.90625 0
-0.953125 -0.890625 0
-0.9375 -0.890625 0
-0.96875 -0.890625 0
-0.953125 -0.890625 0
-0.96875 -0.875 0
-0.953125 -0.875 0
-0.953125 -0.890625 0
-0.9375 -0.890625 0
-0.953125 -0.875 0
-0.9375 -0.875 0
-0.9375 -0.9375 0
-0.921875 -0.9375 0
-0.9375 -0.921875 0
-0.921875 -0.921875 0
-0.921875 -0.9375 0
-0.90625 -0.9375 0
-0.921875 -0.921875 0
-0.90625 -0.921875 0
-0.9375 -0.921875 0
-0.921875 -0.921875 0
-0.9375 -0.90625 0
-0.921875 -0.90625 0
-0.921875 -0.921875 0
-0.90625 -0.921875 0
-0.921875 -0.90625 0
-0.90625 -0.90625 0
-0.90625 -0.9375 0
-0.890625 -0.9375 0
-0.90625 -0.921875 0
-0.890625 -0.921875 0
-0.890625 -0.9375 0
-0.875 -0.9375 0
-0.890625 -0.921875 0
-0.875 -0.921875 0
-0.90625 -0.921875 0
-0.890625 -0.921875 0
-0.90625 -0.90625 0
-0.890625 -0.90625 0
-0.890625 -0.921875 0
-0.875 -0.921875 0
-0.890625 -0.90625 0
-0.875 -0.90625 0
-0.9375 -0.90625 0
-0.921875 -0.90625 0
-0.9375 -0.890625 0
-0.921875 -0.890625 0
-0.921875 -0.90625 0
-0.90625 -0.90625 0
-0.921875 -0.890625 0
-0.90625 -0.890625 0
-0.9375 -0.890625 0
-0.921875 -0.890625 0
-0.9375 -0.875 0
-0.921875 -0.875 0
-0.921875 -0.890625 0
-0.90625 -0.890625 0
-0.921875 -0.875 0
-0.90625 -0.875 0
-0.90625 -0.90625 0
-0.890625 -0.90625 0
-0.90625 -0.890625 0
-0.890625 -0.890625 0
-0.890625 -0.90625 0
-0.875 -0.90625 0
-0.890625 -0.890625 0
-0.875 -0.890625 0
-0.90625 -0.890625 0
-0.890625 -0.890625 0
-0.90625 -0.875 0
-0.890625 -0.875 0
-0.890625 -0.890625 0
-0.875 -0.890625 0
-0.890625 -0.875 0
-0.875 -0.875 0
-0.875 -1 0
-0.859375 -1 0
-0.875 -0.984375 0
-0.859375 -0.984375 0
-0.859375 -1 0
-0.84375 -1 0
-0.859375 -0.984375 0
-0.84375 -0.984375 0
-0.875 -0.984375 0
-0.859375 -0.984375 0
-0.875 -0.96875 0
-0.859375 -0.96875 0
-0.859375 -0.984375 0
-0.84375 -0.984375 0
-0.859375 -0.96875 0
-0.84375 -0.96875 0
-0.84375 -1 0
-0.828125 -1 0
-0.84375 -0.984375 0
-0.828125 -0.984375 0
-0.828125 -1 0
-0.8125 -1 0
-0.828125 -0.984375 0
-0.8125 -0.984375 0
-0.84375 -0.984375 0
-0.828125 -0.984375 0
-0.84375 -0.96875 0
-0.828125 -0.96875 0
-0.828125 -0.984375 0
-0.8125 -0.984375 0
-0.828125 -0.96875 0
-0.8125 -0.96875 0
-0.875 -0.96875 0
-0.859375 -0.96875 0
-0.875 -0.953125 0
-0.859375 -0.953125 0
-0.859375 -0.96875 0
-0.84375 -0.96875 0
-0.859375 -0.953125 0
-0.84375 -0.953125 0
-0.875 -0.953125 0
-0.859375 -0.953125 0
-0.875 -0.9375 0
-0.859375 -0.9375 0
-0.859375 -0.953125 0
-0.84375 -0.953125 0
-0.859375 -0.9375 0
-0.84375 -0.9375 0
-0.84375 -0.96875 0
-0.828125 -0.96875 0
-0.84375 -0.953125 0
-0.828125 -0.953125 0
-0.828125 -0.96875 0
-0.8125 -0.96875 0
-0.828125 -0.953125 0
-0.8125 -0.953125 0
-0.84375 -0.953125 0
-0.828125 -0.953125 0
-0.84375 -0.9375 0
-0.828125 -0.9375 0
-0.828125 -0.953125 0
-0.8125 -0.953125 0
-0.828125 -0.9375 0
-0.8125 -0.9375 0
-0.8125 -1 0
-0.796875 -1 0
-0.8125 -0.984375 0
-0.796875 -0.984375 0
-0.796875 -1 0
-0.78125 -1 0
-0.796875 -0.984375 0
-0.78125 -0.984375 0
-0.8125 -0.984375 0
-0.796875 -0.984375 0
-0.8125 -0.96875 0
-0.796875 -0.96875 0
-0.796875 -0.984375 0
-0.78125 -0.984375 0
-0.796875 -0.96875 0
-0.78125 -0.96875 0
-0.78125 -1 0
-0.765625 -1 0
-0.78125 -0.984375 0
-0.765625 -0.984375 0
-0.765625 -1 0
-0.75 -1 0
-0.765625 -0.984375 0
-0.75 -0.984375 0
-0.78125 -0.984375 0
-0.765625 -0.984375 0
-0.78125 -0.96875 0
-0.765625 -0.96875 0
-0.765625 -0.984375 0
-0.75 -0.984375 0
-0.765625 -0.96875 0
-0.75 -0.96875 0
-0.8125 -0.96875 0
-0.796875 -0.96875 0
-0.8125 -0.953125 0
-0.796875 -0.953125 0
-0.796875 -0.96875 0
-0.78125 -0.96875 0
-0.796875 -0.953125 0
-0.78125 -0.953125 0
-0.8125 -0.953125 0
-0.796875 -0.953125 0
-0.8125 -0.9375 0
-0.796875 -0.9375 0
-0.796875 -0.953125 0
-0.78125 -0.953125 0
-0.796875 -0.9375 0
-0.78125 -0.9375 0
-0.78125 -0.96875 0
-0.765625 -0.96875 0
-0.78125 -0.953125 0
-0.765625 -0.953125 0
-0.765625 -0.96875 0
-0.75 -0.96875 0
-0.765625 -0.953125 0
-0.75 -0.953125 0
-0.78125 -0.953125 0
-0.765625 -0.953125 0
-0.78125 -0.9375 0
-0.765625 -0.9375 0
-0.765625 -0.953125 0
-0.75 -0.953125 0
-0.765625 -0.9375 0
-0.75 -0.9375 0
-0.875 -0.9375 0
-0.859375 -0.9375 0
-0.875 -0.921875 0
-0.859375 -0.921875 0
-0.859375 -0.9375 0
-0.84375 -0.9375 0
-0.859375 -0.921875 0
-0.84375 -0.921875 0
-0.875 -0.921875 0
-0.859375 -0.921875 0
-0.875 -0.90625 0
-0.859375 -0.90625 0
-0.859375 -0.921875 0
-0.84375 -0.921875 0
-0.859375 -0.90625 0
-0.84375 -0.90625 0
-0.84375 -0.9375 0
-0.828125 -0.9375 0
-0.84375 -0.921875 0
-0.828125 -0.921875 0
-0.828125 -0.9375 0
-0.8125 -0.9375 0
-0.828125 -0.921875 0
-0.8125 -0.921875 0
-0.84375 -0.921875 0
-0.828125 -0.921875 0
-0.84375 -0.90625 0
-0.828125 -0.90625 0
-0.828125 -0.921875 0
-0.8125 -0.921875 0
-0.828125 -0.90625 0
-0.8125 -0.90625 0
-0.875 -0.90625 0
-0.859375 -0.90625 0
-0.875 -0.890625 0
-0.859375 -0.890625 0
-0.859375 -0.90625 0
-0.84375 -0.90625 0
-0.859375 -0.890625 0
-0.84375 -0.890625 0
-0.875 -0.890625 0
-0.859375 -0.890625 0
-0.875 -0.875 0
-0.859375 -0.875 0
-0.859375 -0.890625 0
-0.84375 -0.890625 0
-0.859375 -0.875 0
-0.84375 -0.875 0
-0.84375 -0.90625 0
-0.828125 -0.90625 0
-0.84375 -0.890625 0
-0.828125 -0.890625 0
-0.828125 -0.90625 0
-0.8125 -0.90625 0
-0.828125 -0.890625 0
-0.8125 -0.890625 0
-0.84375 -0.890625 0
-0.828125 -0.890625 0
-0.84375 -0.875 0
-0.828125 -0.875 0
-0.828125 -0.890625 0
-0.8125 -0.890625 0
-0.828125 -0.875 0
-0.8125 -0.875 0
-0.8125 -0.9375 0
-0.796875 -0.9375 0
-0.8125 -0.921875 0
-0.796875 -0.921875 0
-0.796875 -0.9375 0
-0.78125 -0.9375 0
-0.796875 -0.921875 0
-0.78125 -0.921875 0
-0.8125 -0.921875 0
-0.796875 -0.921875 0
-0.8125 -0.90625 0
-0.796875 -0.90625 0
-0.796875 -0.921875 0
-0.78125 -0.921875 0
-0.796875 -0.90625 0
-0.78125 -0.90625 0
-0.78125 -0.9375 0
-0.765625 -0.9375 0
-0.78125 -0.921875 0
-0.765625 -0.921875 0
-0.765625 -0.9375 0
-0.75 -0.9375 0
-0.765625 -0.921875 0
-0.75 -0.921875 0
-0.78125 -0.921875 0
-0.765625 -0.921875 0
-0.78125 -0.90625 0
-0.765625 -0.90625 0
-0.765625 -0.921875 0
-0.75 -0.921875 0
-0.765625 -0.90625 0
-0.75 -0.90625 0
-0.8125 -0.90625 0
-0.796875 -0.90625 0
-0.8125 -0.890625 0
-0.796875 -0.890625 0
-0.796875 -0.90625 0
[...]
  <PointData Scalars="scalars">
    <DataArray type="Float32" Name="U" format="ascii">
0 0 0 0.000164915 0 0 0.000164915 0.00032877 0 0.000164915 0 0.00033007 0.000164915 0.00032877 0.00033007 0.000661159 0 0 0.00032877 0.000490614 0 0 0.000490614 0.000649749 0.00032877 0.000490614 0.000661159 0.000994169 0.000490614 0.000649749 0.000994169 0.00132964 0 0.00033007 0 0.000460961 0.00033007 0.000661159 0.000460961 0.000920234 0 0.000460961 0 0.000572003 0.000460961 0.000920234 0.000572003 0.00114463 0.000661159 0.000994169 0.000920234 0.00137602 0.000994169 0.00132964 0.00137602 0.00182673 0.000920234 0.00137602 0.00114463 0.00171891 0.00137602 0.00182673 0.00171891 0.00229566 0 0 0.000649749 0.000806232 0 0 0.000806232 0.000961334 0.000649749 0.000806232 0.00132964 0.00166704 0.000806232 0.000961334 0.00166704 0.0020038 0 0 0.000961334 0.00111838 0 0 0.00111838 0.00128252 0.000961334 0.00111838 0.0020038 0.00233406 0.00111838 0.00128252 0.00233406 0.00264865 0.00132964 0.00166704 0.00182673 0.00227134 0.00166704 0.0020038 0.00227134 0.00271089 0.00182673 0.00227134 0.00229566 0.00287604 0.00227134 0.00271089 0.00287604 0.00345907 0.0020038 0.00233406 0.00271089 0.00314937 0.00233406 0.00264865 0.00314937 0.00359477 0.00271089 0.00314937 0.00345907 0.00404214 0.00314937 0.00359477 0.00404214 0.00461789 0 0.000572003 0 0.000686341 0.000572003 0.00114463 0.000686341 0.00137175 0 0.000686341 0 0.000759425 0.000686341 0.00137175 0.000759425 0.00151899 0.00114463 0.00171891 0.00137175 0.00205476 0.00171891 0.00229566 0.00205476 0.00273404 0.00137175 0.00205476 0.00151899 0.00227891 0.00205476 0.00273404 0.00227891 0.00303985 0 0.000759425 0 0.000830317 0.000759425 0.00151899 0.000830317 0.00165944 0 0.000830317 0 0.000864986 0.000830317 0.00165944 0.000864986 0.00173069 0.00151899 0.00227891 0.00165944 0.00248731 0.00227891 0.00303985 0.00248731 0.00331153 0.00165944 0.00248731 0.00173069 0.00259551 0.00248731 0.00331153 0.00259551 0.00346178 0.00229566 0.00287604 0.00273404 0.00340732 0.00287604 0.00345907 0.00340732 0.00407424 0.00273404 0.00340732 0.00303985 0.00380222 0.00340732 0.00407424 0.00380222 0.00456604 0.00345907 0.00404214 0.00407424 0.00473472 0.00404214 0.00461789 0.00473472 0.00539346 0.00407424 0.00473472 0.00456604 0.0053298 0.00473472 0.00539346 0.0053298 0.00608975 0.00303985 0.00380222 0.00331153 0.00413344 0.00380222 0.00456604 0.00413344 0.00495035 0.00331153 0.00413344 0.00346178 0.00432452 0.00413344 0.00495035 0.00432452 0.00518729 0.00456604 0.0053298 0.00495035 0.00576613 0.0053298 0.00608975 0.00576613 0.00657894 0.00495035 0.00576613 0.00518729 0.00604124 0.00576613 0.00657894 0.00604124 0.00689287 0 0 0.00128252 0.00145963 0 0 0.00145963 0.00165208 0.00128252 0.00145963 0.00264865 0.00293698 0.00145963 0.00165208 0.00293698 0.00319365 0 0 0.00165208 0.0018541 0 0 0.0018541 0.00204792 0.00165208 0.0018541 0.00319365 0.00342629 0.0018541 0.00204792 0.00342629 0.00366146 0.00264865 0.00293698 0.00359477 0.00405633 0.00293698 0.00319365 0.00405633 0.00453848 0.00359477 0.00405633 0.00461789 0.00517862 0.00405633 0.00453848 0.00517862 0.0057186 0.00319365 0.00342629 0.00453848 0.00503128 0.00342629 0.00366146 0.00503128 0.00550574 0.00453848 0.00503128 0.0057186 0.00624548 0.00503128 0.00550574 0.00624548 0.00677996 0 0 0.00204792 0.00220925 0 0 0.00220925 0.0023216 0.00204792 0.00220925 0.00366146 0.00393466 0.00220925 0.0023216 0.00393466 0.00426608 0 0 0.0023216 0.00239461 0 0 0.00239461 0.00246312 0.0023216 0.00239461 0.00426608 0.00463036 0.00239461 0.00246312 0.00463036 0.00496301 0.00366146 0.00393466 0.00550574 0.00592507 0.00393466 0.00426608 0.00592507 0.00627388 0.00550574 0.00592507 0.00677996 0.00734868 0.00592507 0.00627388 0.00734868 0.00795268 0.00426608 0.00463036 0.00627388 0.00658971 0.00463036 0.00496301 0.00658971 0.00694877 0.00627388 0.00658971 0.00795268 0.00854649 0.00658971 0.00694877 0.00854649 0.00905333 0.00461789 0.00517862 0.00539346 0.00605405 0.00517862 0.0057186 0.00605405 0.00672105 0.00539346 0.00605405 0.00608975 0.00684177 0.00605405 0.00672105 0.00684177 0.00758151 0.0057186 0.00624548 0.00672105 0.00738666 0.00624548 0.00677996 0.00738666 0.00803775 0.00672105 0.00738666 0.00758151 0.00831251 0.00738666 0.00803775 0.00831251 0.00903975 0.00608975 0.00684177 0.00657894 0.00739427 0.00684177 0.00758151 0.00739427 0.00820847 0.00657894 0.00739427 0.00689287 0.00773158 0.00739427 0.00820847 0.00773158 0.00856994 0.00758151 0.00831251 0.00820847 0.00902307 0.00831251 0.00903975 0.00902307 0.00983089 0.00820847 0.00902307 0.00856994 0.00939421 0.00902307 0.00983089 0.00939421 0.0102152 0.00677996 0.00734868 0.00803775 0.00865384 0.00734868 0.00795268 0.00865384 0.00924032 0.00803775 0.00865384 0.00903975 0.00977512 0.00865384 0.00924032 0.00977512 0.0105112 0.00795268 0.00854649 0.00924032 0.00982923 0.00854649 0.00905333 0.00982923 0.0104775 0.00924032 0.00982923 0.0105112 0.0112369 0.00982923 0.0104775 0.0112369 0.011922 0.00903975 0.00977512 0.00983089 0.0106306 0.00977512 0.0105112 0.0106306 0.0114194 0.00983089 0.0106306 0.0102152 0.0110066 0.0106306 0.0114194 0.0110066 0.0117794 0.0105112 0.0112369 0.0114194 0.0121883 0.0112369 0.011922 0.0121883 0.0129259 0.0114194 0.0121883 0.0117794 0.0125301 0.0121883 0.0129259 0.0125301 0.0133121 0 0.000864986 0 0.00085035 0.000864986 0.00173069 0.00085035 0.0017002 0 0.00085035 0 0.00081567 0.00085035 0.0017002 0.00081567 0.00162931 0.00173069 0.00259551 0.0017002 0.00255001 0.00259551 0.00346178 0.00255001 0.00339918 0.0017002 0.00255001 0.00162931 0.00244336 0.00255001 0.00339918 0.00244336 0.00325012 0 0.00081567 0 0.000733972 0.00081567 0.00162931 0.000733972 0.00147126 0 0.000733972 0 0.000656153 0.000733972 0.00147126 0.000656153 0.00130931 0.00162931 0.00244336 0.00147126 0.00220468 0.00244336 0.00325012 0.00220468 0.0029495 0.00147126 0.00220468 0.00130931 0.00196286 0.00220468 0.0029495 0.00196286 0.00260557 0.00346178 0.00432452 0.00339918 0.00425042 0.00432452 0.00518729 0.00425042 0.00510201 0.00339918 0.00425042 0.00325012 0.00405532 0.00425042 0.00510201 0.00405532 0.00484716 0.00518729 0.00604124 0.00510201 0.00595838 0.00604124 0.00689287 0.00595838 0.00681096 0.00510201 0.00595838 0.00484716 0.00563669 0.00595838 0.00681096 0.00563669 0.00641605 0.00325012 0.00405532 0.0029495 0.00368789 0.00405532 0.00484716 0.00368789 0.00444658 0.0029495 0.00368789 0.00260557 0.00324904 0.00368789 0.00444658 0.00324904 0.00387156 0.00484716 0.00563669 0.00444658 0.0051918 0.00563669 0.00641605 0.0051918 0.00595548 0.00444658 0.0051918 0.00387156 0.00450206 0.0051918 0.00595548 0.00450206 0.00510827 0 0.000656153 0 0.000545614 0.000656153 0.00130931 0.000545614 0.00108799 0 0.000545614 0 0.000439318 0.000545614 0.00108799 0.000439318 0.000887601 0.00130931 0.00196286 0.00108799 0.00163867 0.00196286 0.00260557 0.00163867 0.00218115 0.00108799 0.00163867 0.000887601 0.00131677 0.00163867 0.00218115 0.00131677 0.00177287 0 0.000439318 0 0.00033976 0.000439318 0.000887601 0.00033976 0.000673988 0 0.00033976 0 0.000254067 0.00033976 0.000673988 0.000254067 0.000499168 0.000887601 0.00131677 0.000673988 0.00102138 0.00131677 0.00177287 0.00102138 0.0013501 0.000673988 0.00102138 0.000499168 0.000760072 0.00102138 0.0013501 0.000760072 0.000996758 0.00260557 0.00324904 0.00218115 0.00273948 0.00324904 0.00387156 0.00273948 0.00328684 0.00218115 0.00273948 0.00177287 0.00218997 0.00273948 0.00328684 0.00218997 0.0026534 0.00387156 0.00450206 0.00328684 0.00385043 0.00450206 0.00510827 0.00385043 0.00439751 0.00328684 0.00385043 0.0026534 0.00306035 0.00385043 0.00439751 0.00306035 0.0035373 0.00177287 0.00218997 0.0013501 0.00170872 0.00218997 0.0026534 0.00170872 0.00202825 0.0013501 0.00170872 0.000996758 0.00126173 0.00170872 0.00202825 0.00126173 0.00149666 0.0026534 0.00306035 0.00202825 0.00239982 0.00306035 0.0035373 0.00239982 0.00270014 0.00202825 0.00239982 0.00149666 0.00176506 0.00239982 0.00270014 0.00176506 0.00201306 0.00689287 0.00773158 0.00681096 0.00766281 0.00773158 0.00856994 0.00766281 0.00849381 0.00681096 0.00766281 0.00641605 0.00720566 0.00766281 0.00849381 0.00720566 0.00800637 0.00856994 0.00939421 0.00849381 0.00931605 0.00939421 0.0102152 0.00931605 0.0101146 0.00849381 0.00931605 0.00800637 0.00882964 0.00931605 0.0101146 0.00882964 0.00966106 0.00641605 0.00720566 0.00595548 0.00668015 0.00720566 0.00800637 0.00668015 0.00740275 0.00595548 0.00668015 0.00510827 0.00575 0.00668015 0.00740275 0.00575 0.00637401 0.00800637 0.00882964 0.00740275 0.00806006 0.00882964 0.00966106 0.00806006 0.00872462 0.00740275 0.00806006 0.00637401 0.00706408 0.00806006 0.00872462 0.00706408 0.0077064 0.0102152 0.0110066 0.0101146 0.0109351 0.0110066 0.0117794 0.0109351 0.011759 0.0101146 0.0109351 0.00966106 0.0104636 0.0109351 0.011759 0.0104636 0.011222 0.0117794 0.0125301 0.011759 0.0126113 0.0125301 0.0133121 0.0126113 0.0133915 0.011759 0.0126113 0.011222 0.011909 0.0126113 0.0133915 0.011909 0.0126208 0.00966106 0.0104636 0.00872462 0.00936781 0.0104636 0.011222 0.00936781 0.0100815 0.00872462 0.00936781 0.0077064 0.00839029 0.00936781 0.0100815 0.00839029 0.00894771 0.011222 0.011909 0.0100815 0.0108143 0.011909 0.0126208 0.0108143 0.0115532 0.0100815 0.0108143 0.00894771 0.00953871 0.0108143 0.0115532 0.00953871 0.0100315 0.00510827 0.00575 0.00439751 0.00494354 0.00575 0.00637401 0.00494354 0.00546866 0.00439751 0.00494354 0.0035373 0.00394691 0.00494354 0.00546866 0.00394691 0.00444573 0.00637401 0.00706408 0.00546866 0.00597085 0.00706408 0.0077064 0.00597085 0.00648788 0.00546866 0.00597085 0.00444573 0.00486312 0.00597085 0.00648788 0.00486312 0.0053578 0.0035373 0.00394691 0.00270014 0.00308508 0.00394691 0.00444573 0.00308508 0.00336249 0.00270014 0.00308508 0.00201306 0.00227922 0.00308508 0.00336249 0.00227922 0.00254595 0.00444573 0.00486312 0.00336249 0.00378019 0.00486312 0.0053578 0.00378019 0.00405807 0.00336249 0.00378019 0.00254595 0.0027739 0.00378019 0.00405807 0.0027739 0.00304748 0.0077064 0.00839029 0.00648788 0.0069836 0.00839029 0.00894771 0.0069836 0.00756622 0.00648788 0.0069836 0.0053578 0.00575975 0.0069836 0.00756622 0.00575975 0.00621512 0.00894771 0.00953871 0.00756622 0.00808281 0.00953871 0.0100315 0.00808281 0.00870427 0.00756622 0.00808281 0.00621512 0.0066358 0.00808281 0.00870427 0.0066358 0.00707411 0.0053578 0.00575975 0.00405807 0.00452588 0.00575975 0.00621512 0.00452588 0.00478572 0.00405807 0.00452588 0.00304748 0.00321748 0.00452588 0.00478572 0.00321748 0.00357283 0.00621512 0.0066358 0.00478572 0.00522385 0.0066358 0.00707411 0.00522385 0.0054283 0.00478572 0.00522385 0.00357283 0.00378536 0.00522385 0.0054283 0.00378536 0.00431329 0 0 0.00246312 0.0025594 0 0 0.0025594 0.00267723 0.00246312 0.0025594 0.00496301 0.00521234 0.0025594 0.00267723 0.00521234 0.00540489 0 0 0.00267723 0.00278186 0 0 0.00278186 0.00287152 0.00267723 0.00278186 0.00540489 0.00562017 0.00278186 0.00287152 0.00562017 0.00587391 0.00496301 0.00521234 0.00694877 0.00739783 0.00521234 0.00540489 0.00739783 0.00787405 0.00694877 0.00739783 0.00905333 0.00943954 0.00739783 0.00787405 0.00943954 0.00978454 0.00540489 0.00562017 0.00787405 0.00824789 0.00562017 0.00587391 0.00824789 0.0084754 0.00787405 0.00824789 0.00978454 0.0102319 0.00824789 0.0084754 0.0102319 0.010835 0 0 0.00287152 0.00300452 0 0 0.00300452 0.00320696 0.00287152 0.00300452 0.00587391 0.00605427 0.00300452 0.00320696 0.00605427 0.00608149 0 0 0.00320696 0.00336234 0 0 0.00336234 0.003324 0.00320696 0.00336234 0.00608149 0.00610818 0.00336234 0.003324 0.00610818 0.00636228 0.00587391 0.00605427 0.0084754 0.00869951 0.00605427 0.00608149 0.00869951 0.00906133 0.0084754 0.00869951 0.010835 0.0114464 0.00869951 0.00906133 0.0114464 0.0118944 0.00608149 0.00610818 0.00906133 0.00945845 0.00610818 0.00636228 0.00945845 0.00966012 0.00906133 0.00945845 0.0118944 0.0121957 0.00945845 0.00966012 0.0121957 0.0125277 0.00905333 0.00943954 0.0104775 0.0111943 0.00943954 0.00978454 0.0111943 0.0119132 0.0104775 0.0111943 0.011922 0.0125756 0.0111943 0.0119132 0.0125756 0.0132129 0.00978454 0.0102319 0.0119132 0.012519 0.0102319 0.010835 0.012519 0.0129754 0.0119132 0.012519 0.0132129 0.0138747 0.012519 0.0129754 0.0138747 0.0145392 0.011922 0.0125756 0.0129259 0.0136052 0.0125756 0.0132129 0.0136052 0.0142531 0.0129259 0.0136052 0.0133121 0.0141414 0.0136052 0.0142531 0.0141414 0.0149834 0.0132129 0.0138747 0.0142531 0.0149024 0.0138747 0.0145392 0.0149024 0.0156232 0.0142531 0.0149024 0.0149834 0.0157292 0.0149024 0.0156232 0.0157292 0.0162954 0.010835 0.0114464 0.0129754 0.0133821 0.0114464 0.0118944 0.0133821 0.0138623 0.0129754 0.0133821 0.0145392 0.0151835 0.0133821 0.0138623 0.0151835 0.0157707 0.0118944 0.0121957 0.0138623 0.0144365 0.0121957 0.0125277 0.0144365 0.01499 0.0138623 0.0144365 0.0157707 0.0162875 0.0144365 0.01499 0.0162875 0.0167375 0.0145392 0.0151835 0.0156232 0.0163358 0.0151835 0.0157707 0.0163358 0.0169784 0.0156232 0.0163358 0.0162954 0.0168154 0.0163358 0.0169784 0.0168154 0.0174137 0.0157707 0.0162875 0.0169784 0.0175146 0.0162875 0.0167375 0.0175146 0.0180892 0.0169784 0.0175146 0.0174137 0.0181419 0.0175146 0.0180892 0.0181419 0.0186864 0 0 0.003324 0.00316467 0 0 0.00316467 0.00314279 0.003324 0.00316467 0.00636228 0.00674581 0.00316467 0.00314279 0.00674581 0.00688486 0 0 0.00314279 0.00329911 0 0 0.00329911 0.0034072 0.00314279 0.00329911 0.00688486 0.00676357 0.00329911 0.0034072 0.00676357 0.00676304 0.00636228 0.00674581 0.00966012 0.00972905 0.00674581 0.00688486 0.00972905 0.00997658 0.00966012 0.00972905 0.0125277 0.0128871 0.00972905 0.00997658 0.0128871 0.0131248 0.00688486 0.00676357 0.00997658 0.0103611 0.00676357 0.00676304 0.0103611 0.0104953 0.00997658 0.0103611 0.0131248 0.0132723 0.0103611 0.0104953 0.0132723 0.0135456 0 0 0.0034072 0.00342669 0 0 0.00342669 0.00352964 0.0034072 0.00342669 0.00676304 0.00692666 0.00342669 0.00352964 0.00692666 0.006904 0 0 0.00352964 0.00357815 0 0 0.00357815 0.00336015 0.00352964 0.00357815 0.006904 0.00683595 0.00357815 0.00336015 0.00683595 0.00705545 0.00676304 0.00692666 0.0104953 0.0103631 0.00692666 0.006904 0.0103631 0.0104021 0.0104953 0.0103631 0.0135456 0.0139388 0.0103631 0.0104021 0.0139388 0.0141518 0.006904 0.00683595 0.0104021 0.010581 0.00683595 0.00705545 0.010581 0.0106003 0.0104021 0.010581 0.0141518 0.0141212 0.010581 0.0106003 0.0141212 0.0139529 0.0125277 0.0128871 0.01499 0.0154676 0.0128871 0.0131248 0.0154676 0.0158329 0.01499 0.0154676 0.0167375 0.0171816 0.0154676 0.0158329 0.0171816 0.0177713 0.0131248 0.0132723 0.0158329 0.0161437 0.0132723 0.0135456 0.0161437 0.0164334 0.0158329 0.0161437 0.0177713 0.0183411 0.0161437 0.0164334 0.0183411 0.0186473 0.0167375 0.0171816 0.0180892 0.0186419 0.0171816 0.0177713 0.0186419 0.0189767 0.0180892 0.0186419 0.0186864 0.0190937 0.0186419 0.0189767 0.0190937 0.0194769 0.0177713 0.0183411 0.0189767 0.0192039 0.0183411 0.0186473 0.0192039 0.0196067 0.0189767 0.0192039 0.0194769 0.0199371 0.0192039 0.0196067 0.0199371 0.0202068 0.0135456 0.0139388 0.0164334 0.0166943 0.0139388 0.0141518 0.0166943 0.0168486 0.0164334 0.0166943 0.0186473 0.0186823 0.0166943 0.0168486 0.0186823 0.0189088 0.0141518 0.0141212 0.0168486 0.0169835 0.0141212 0.0139529 0.0169835 0.0172488 0.0168486 0.0169835 0.0189088 0.0191441 0.0169835 0.0172488 0.0191441 0.0190467 0.0186473 0.0186823 0.0196067 0.0201905 0.0186823 0.0189088 0.0201905 0.0203036 0.0196067 0.0201905 0.0202068 0.0203157 0.0201905 0.0203036 0.0203157 0.0206914 0.0189088 0.0191441 0.0203036 0.0202934 0.0191441 0.0190467 0.0202934 0.0203792 0.0203036 0.0202934 0.0206914 0.0208888 0.0202934 0.0203792 0.0208888 0.0211138 0.0133121 0.0141414 0.0133915 0.0141032 0.0141414 0.0149834 0.0141032 0.0147247 0.0133915 0.0141032 0.0126208 0.0133442 0.0141032 0.0147247 0.0133442 0.0141455 0.0149834 0.0157292 0.0147247 0.015424 0.0157292 0.0162954 0.015424 0.0162145 0.0147247 0.015424 0.0141455 0.0148143 0.015424 0.0162145 0.0148143 0.0154191 0.0126208 0.0133442 0.0115532 0.0122269 0.0133442 0.0141455 0.0122269 0.0128133 0.0115532 0.0122269 0.0100315 0.0106488 0.0122269 0.0128133 0.0106488 0.0112299 0.0141455 0.0148143 0.0128133 0.0134411 0.0148143 0.0154191 0.0134411 0.0140399 0.0128133 0.0134411 0.0112299 0.0118858 0.0134411 0.0140399 0.0118858 0.0124949 0.0162954 0.0168154 0.0162145 0.0169956 0.0168154 0.0174137 0.0169956 0.0175628 0.0162145 0.0169956 0.0154191 0.0159152 0.0169956 0.0175628 0.0159152 0.0165855 0.0174137 0.0181419 0.0175628 0.0179086 0.0181419 0.0186864 0.0179086 0.018365 0.0175628 0.0179086 0.0165855 0.0172815 0.0179086 0.018365 0.0172815 0.0178944 0.0154191 0.0159152 0.0140399 0.0147484 0.0159152 0.0165855 0.0147484 0.0152713 0.0140399 0.0147484 0.0124949 0.0130504 0.0147484 0.0152713 0.0130504 0.0136021 0.0165855 0.0172815 0.0152713 0.0159021 0.0172815 0.0178944 0.0159021 0.0163454 0.0152713 0.0159021 0.0136021 0.0139217 0.0159021 0.0163454 0.0139217 0.0144957 0.0100315 0.0106488 0.00870427 0.00915459 0.0106488 0.0112299 0.00915459 0.00974743 0.00870427 0.00915459 0.00707411 0.00754461 0.00915459 0.00974743 0.00754461 0.00788123 0.0112299 0.0118858 0.00974743 0.0101166 0.0118858 0.0124949 0.0101166 0.0106372 0.00974743 0.0101166 0.00788123 0.00837905 0.0101166 0.0106372 0.00837905 0.00870044 0.00707411 0.00754461 0.0054283 0.00586516 0.00754461 0.00788123 0.00586516 0.00623089 0.0054283 0.00586516 0.00431329 0.00450349 0.00586516 0.00623089 0.00450349 0.00497239 0.00788123 0.00837905 0.00623089 0.00674603 0.00837905 0.00870044 0.00674603 0.0072069 0.00623089 0.00674603 0.00497239 0.00501548 0.00674603 0.0072069 0.00501548 0.00547211 0.0124949 0.0130504 0.0106372 0.010957 0.0130504 0.0136021 0.010957 0.0115114 0.0106372 0.010957 0.00870044 0.00938637 0.010957 0.0115114 0.00938637 0.00966148 0.0136021 0.0139217 0.0115114 0.0121009 0.0139217 0.0144957 0.0121009 0.0125767 0.0115114 0.0121009 0.00966148 0.0102101 0.0121009 0.0125767 0.0102101 0.0105052 0.00870044 0.00938637 0.0072069 0.00747442 0.00938637 0.00966148 0.00747442 0.00801474 0.0072069 0.00747442 0.00547211 0.00571579 0.00747442 0.00801474 0.00571579 0.0061412 0.00966148 0.0102101 0.00801474 0.00822873 0.0102101 0.0105052 0.00822873 0.00890547 0.00801474 0.00822873 0.0061412 0.00652953 0.00822873 0.00890547 0.00652953 0.00671405 0.0186864 0.0190937 0.018365 0.0188973 0.0190937 0.0194769 0.0188973 0.0195107 0.018365 0.0188973 0.0178944 0.0183426 0.0188973 0.0195107 0.0183426 0.018598 0.0194769 0.0199371 0.0195107 0.0198516 0.0199371 0.0202068 0.0198516 0.0201942 0.0195107 0.0198516 0.018598 0.0190089 0.0198516 0.0201942 0.0190089 0.0193142 0.0178944 0.0183426 0.0163454 0.0168934 0.0183426 0.018598 0.0168934 0.0173535 0.0163454 0.0168934 0.0144957 0.0148974 0.0168934 0.0173535 0.0148974 0.0155655 0.018598 0.0190089 0.0173535 0.0177805 0.0190089 0.0193142 0.0177805 0.0181008 0.0173535 0.0177805 0.0155655 0.0158105 0.0177805 0.0181008 0.0158105 0.0163917 0.0202068 0.0203157 0.0201942 0.0203433 0.0203157 0.0206914 0.0203433 0.0204661 0.0201942 0.0203433 0.0193142 0.0198829 0.0203433 0.0204661 0.0198829 0.0197944 0.0206914 0.0208888 0.0204661 0.0206883 0.0208888 0.0211138 0.0206883 0.020329 0.0204661 0.0206883 0.0197944 0.0196597 0.0206883 0.020329 0.0196597 0.0201075 0.0193142 0.0198829 0.0181008 0.018016 0.0198829 0.0197944 0.018016 0.0188008 0.0181008 0.018016 0.0163917 0.0170534 0.018016 0.0188008 0.0170534 0.0170609 0.0197944 0.0196597 0.0188008 0.0191565 0.0196597 0.0201075 0.0191565 0.0192444 0.0188008 0.0191565 0.0170609 0.0176222 0.0191565 0.0192444 0.0176222 0.017593 0.0144957 0.0148974 0.0125767 0.0130618 0.0148974 0.0155655 0.0130618 0.0132764 0.0125767 0.0130618 0.0105052 0.0111514 0.0130618 0.0132764 0.0111514 0.0116856 0.0155655 0.0158105 0.0132764 0.0141465 0.0158105 0.0163917 0.0141465 0.0143821 0.0132764 0.0141465 0.0116856 0.0118191 0.0141465 0.0143821 0.0118191 0.0124461 0.0105052 0.0111514 0.00890547 0.00894985 0.0111514 0.0116856 0.00894985 0.00954888 0.00890547 0.00