<?xml version="1.0" ?> 
<!-- 
# vtk DataFile Version 3.0
#This file was generated by the deal.II library on 23:53:55 at 2021/5/3
-->
<VTKFile type="UnstructuredGrid" version="0.1" byte_order="LittleEndian">
<UnstructuredGrid>
<FieldData>
<DataArray type="Float32" Name="CYCLE" NumberOfTuples="1" format="ascii">206</DataArray>
<DataArray type="Float32" Name="TIME" NumberOfTuples="1" format="ascii">0.412</DataArray>
</FieldData>
<Piece NumberOfPoints="3456" NumberOfCells="864" >
  <Points>
    <DataArray type="Float32" NumberOfComponents="3" format="ascii">
-1 -1 0
-0.75 -1 0
-1 -0.75 0
-0.75 -0.75 0
-0.75 -1 0
-0.5 -1 0
-0.75 -0.75 0
-0.5 -0.75 0
-1 -0.75 0
-0.75 -0.75 0
-1 -0.5 0
-0.75 -0.5 0
-0.75 -0.75 0
-0.5 -0.75 0
-0.75 -0.5 0
-0.5 -0.5 0
-0.5 -1 0
-0.25 -1 0
-0.5 -0.75 0
-0.25 -0.75 0
-0.25 -1 0
0 -1 0
-0.25 -0.75 0
0 -0.75 0
-0.5 -0.75 0
-0.25 -0.75 0
-0.5 -0.5 0
-0.25 -0.5 0
-1 -0.5 0
-0.75 -0.5 0
-1 -0.25 0
-0.75 -0.25 0
-1 -0.25 0
-0.75 -0.25 0
-1 0 0
-0.75 0 0
-0.25 -0.5 0
0 -0.5 0
-0.25 -0.25 0
0 -0.25 0
-0.75 -0.25 0
-0.625 -0.25 0
-0.75 -0.125 0
-0.625 -0.125 0
-0.625 -0.25 0
-0.5 -0.25 0
-0.625 -0.125 0
-0.5 -0.125 0
-0.75 -0.125 0
-0.625 -0.125 0
-0.75 0 0
-0.625 0 0
-0.625 -0.125 0
-0.5 -0.125 0
-0.625 0 0
-0.5 0 0
-0.375 -0.25 0
-0.25 -0.25 0
-0.375 -0.125 0
-0.25 -0.125 0
-0.375 -0.125 0
-0.25 -0.125 0
-0.375 0 0
-0.25 0 0
0 -0.75 0
0.125 -0.75 0
0 -0.625 0
0.125 -0.625 0
0.125 -0.75 0
0.25 -0.75 0
0.125 -0.625 0
0.25 -0.625 0
0 -0.625 0
0.125 -0.625 0
0 -0.5 0
0.125 -0.5 0
0.125 -0.625 0
0.25 -0.625 0
0.125 -0.5 0
0.25 -0.5 0
0 -0.5 0
0.125 -0.5 0
0 -0.375 0
0.125 -0.375 0
0 -0.375 0
0.125 -0.375 0
0 -0.25 0
0.125 -0.25 0
0 -0.25 0
0.125 -0.25 0
0 -0.125 0
0.125 -0.125 0
0.125 -0.25 0
0.25 -0.25 0
0.125 -0.125 0
0.25 -0.125 0
0.125 -0.125 0
0.25 -0.125 0
0.125 0 0
0.25 0 0
-0.25 -0.75 0
-0.125 -0.75 0
-0.25 -0.625 0
-0.125 -0.625 0
-0.125 -0.75 0
0 -0.75 0
-0.125 -0.625 0
0 -0.625 0
-0.25 -0.625 0
-0.125 -0.625 0
-0.25 -0.5 0
-0.125 -0.5 0
-0.125 -0.625 0
0 -0.625 0
-0.125 -0.5 0
0 -0.5 0
0 -1 0
0.125 -1 0
0 -0.875 0
0.125 -0.875 0
0.125 -1 0
0.25 -1 0
0.125 -0.875 0
0.25 -0.875 0
0 -0.875 0
0.125 -0.875 0
0 -0.75 0
0.125 -0.75 0
0.125 -0.875 0
0.25 -0.875 0
0.125 -0.75 0
0.25 -0.75 0
-0.5 -0.5 0
-0.375 -0.5 0
-0.5 -0.375 0
-0.375 -0.375 0
-0.375 -0.5 0
-0.25 -0.5 0
-0.375 -0.375 0
-0.25 -0.375 0
-0.5 -0.375 0
-0.375 -0.375 0
-0.5 -0.25 0
-0.375 -0.25 0
-0.375 -0.375 0
-0.25 -0.375 0
-0.375 -0.25 0
-0.25 -0.25 0
0.25 -0.75 0
0.375 -0.75 0
0.25 -0.625 0
0.375 -0.625 0
0.25 -1 0
0.375 -1 0
0.25 -0.875 0
0.375 -0.875 0
0.375 -1 0
0.5 -1 0
0.375 -0.875 0
0.5 -0.875 0
0.25 -0.875 0
0.375 -0.875 0
0.25 -0.75 0
0.375 -0.75 0
0.375 -0.875 0
0.5 -0.875 0
0.375 -0.75 0
0.5 -0.75 0
0.5 -1 0
0.625 -1 0
0.5 -0.875 0
0.625 -0.875 0
0.625 -1 0
0.75 -1 0
0.625 -0.875 0
0.75 -0.875 0
0.5 -0.875 0
0.625 -0.875 0
0.5 -0.75 0
0.625 -0.75 0
0.625 -0.875 0
0.75 -0.875 0
0.625 -0.75 0
0.75 -0.75 0
-0.25 -0.25 0
-0.125 -0.25 0
-0.25 -0.125 0
-0.125 -0.125 0
-0.125 -0.25 0
0 -0.25 0
-0.125 -0.125 0
0 -0.125 0
-0.25 -0.125 0
-0.125 -0.125 0
-0.25 0 0
-0.125 0 0
-1 0.25 0
-0.875 0.25 0
-1 0.375 0
-0.875 0.375 0
-0.875 0.25 0
-0.75 0.25 0
-0.875 0.375 0
-0.75 0.375 0
-1 0.375 0
-0.875 0.375 0
-1 0.5 0
-0.875 0.5 0
-0.5 0 0
-0.375 0 0
-0.5 0.125 0
-0.375 0.125 0
-1 0.5 0
-0.875 0.5 0
-1 0.625 0
-0.875 0.625 0
-1 0.625 0
-0.875 0.625 0
-1 0.75 0
-0.875 0.75 0
-0.875 0.625 0
-0.75 0.625 0
-0.875 0.75 0
-0.75 0.75 0
-0.75 -0.5 0
-0.625 -0.5 0
-0.75 -0.375 0
-0.625 -0.375 0
-0.625 -0.5 0
-0.5 -0.5 0
-0.625 -0.375 0
-0.5 -0.375 0
-0.75 -0.375 0
-0.625 -0.375 0
-0.75 -0.25 0
-0.625 -0.25 0
-0.625 -0.375 0
-0.5 -0.375 0
-0.625 -0.25 0
-0.5 -0.25 0
0.75 -1 0
0.875 -1 0
0.75 -0.875 0
0.875 -0.875 0
0.875 -1 0
1 -1 0
0.875 -0.875 0
1 -0.875 0
0.75 -0.875 0
0.875 -0.875 0
0.75 -0.75 0
0.875 -0.75 0
0.875 -0.875 0
1 -0.875 0
0.875 -0.75 0
1 -0.75 0
-1 0 0
-0.875 0 0
-1 0.125 0
-0.875 0.125 0
-0.875 0 0
-0.75 0 0
-0.875 0.125 0
-0.75 0.125 0
-1 0.125 0
-0.875 0.125 0
-1 0.25 0
-0.875 0.25 0
-0.875 0.125 0
-0.75 0.125 0
-0.875 0.25 0
-0.75 0.25 0
-1 0.75 0
-0.875 0.75 0
-1 0.875 0
-0.875 0.875 0
-0.875 0.75 0
-0.75 0.75 0
-0.875 0.875 0
-0.75 0.875 0
-1 0.875 0
-0.875 0.875 0
-1 1 0
-0.875 1 0
-0.875 0.875 0
-0.75 0.875 0
-0.875 1 0
-0.75 1 0
-0.625 0.25 0
-0.5625 0.25 0
-0.625 0.3125 0
-0.5625 0.3125 0
-0.5625 0.25 0
-0.5 0.25 0
-0.5625 0.3125 0
-0.5 0.3125 0
-0.625 0.3125 0
-0.5625 0.3125 0
-0.625 0.375 0
-0.5625 0.375 0
-0.5625 0.3125 0
-0.5 0.3125 0
-0.5625 0.375 0
-0.5 0.375 0
-0.75 0.375 0
-0.6875 0.375 0
-0.75 0.4375 0
-0.6875 0.4375 0
-0.6875 0.375 0
-0.625 0.375 0
-0.6875 0.4375 0
-0.625 0.4375 0
-0.75 0.4375 0
-0.6875 0.4375 0
-0.75 0.5 0
-0.6875 0.5 0
-0.6875 0.4375 0
-0.625 0.4375 0
-0.6875 0.5 0
-0.625 0.5 0
-0.625 0.375 0
-0.5625 0.375 0
-0.625 0.4375 0
-0.5625 0.4375 0
-0.5625 0.375 0
-0.5 0.375 0
-0.5625 0.4375 0
-0.5 0.4375 0
-0.625 0.4375 0
-0.5625 0.4375 0
-0.625 0.5 0
-0.5625 0.5 0
-0.25 0.125 0
-0.1875 0.125 0
-0.25 0.1875 0
-0.1875 0.1875 0
-0.1875 0.125 0
-0.125 0.125 0
-0.1875 0.1875 0
-0.125 0.1875 0
-0.25 0.1875 0
-0.1875 0.1875 0
-0.25 0.25 0
-0.1875 0.25 0
-0.1875 0.1875 0
-0.125 0.1875 0
-0.1875 0.25 0
-0.125 0.25 0
-0.5 -0.125 0
-0.4375 -0.125 0
-0.5 -0.0625 0
-0.4375 -0.0625 0
-0.4375 -0.125 0
-0.375 -0.125 0
-0.4375 -0.0625 0
-0.375 -0.0625 0
-0.5 -0.0625 0
-0.4375 -0.0625 0
-0.5 0 0
-0.4375 0 0
-0.4375 -0.0625 0
-0.375 -0.0625 0
-0.4375 0 0
-0.375 0 0
0 -0.125 0
0.0625 -0.125 0
0 -0.0625 0
0.0625 -0.0625 0
0.0625 -0.125 0
0.125 -0.125 0
0.0625 -0.0625 0
0.125 -0.0625 0
0.0625 -0.0625 0
0.125 -0.0625 0
0.0625 0 0
0.125 0 0
-0.625 0 0
-0.5625 0 0
-0.625 0.0625 0
-0.5625 0.0625 0
-0.5625 0 0
-0.5 0 0
-0.5625 0.0625 0
-0.5 0.0625 0
-0.625 0.0625 0
-0.5625 0.0625 0
-0.625 0.125 0
-0.5625 0.125 0
-0.5625 0.0625 0
-0.5 0.0625 0
-0.5625 0.125 0
-0.5 0.125 0
-0.625 0.125 0
-0.5625 0.125 0
-0.625 0.1875 0
-0.5625 0.1875 0
-0.5625 0.125 0
-0.5 0.125 0
-0.5625 0.1875 0
-0.5 0.1875 0
-0.625 0.1875 0
-0.5625 0.1875 0
-0.625 0.25 0
-0.5625 0.25 0
-0.5625 0.1875 0
-0.5 0.1875 0
-0.5625 0.25 0
-0.5 0.25 0
-0.5 -0.25 0
-0.4375 -0.25 0
-0.5 -0.1875 0
-0.4375 -0.1875 0
-0.4375 -0.25 0
-0.375 -0.25 0
-0.4375 -0.1875 0
-0.375 -0.1875 0
-0.5 -0.1875 0
-0.4375 -0.1875 0
-0.5 -0.125 0
-0.4375 -0.125 0
-0.4375 -0.1875 0
-0.375 -0.1875 0
-0.4375 -0.125 0
-0.375 -0.125 0
-0.875 0.375 0
-0.8125 0.375 0
-0.875 0.4375 0
-0.8125 0.4375 0
-0.8125 0.375 0
-0.75 0.375 0
-0.8125 0.4375 0
-0.75 0.4375 0
-0.875 0.4375 0
-0.8125 0.4375 0
-0.875 0.5 0
-0.8125 0.5 0
-0.8125 0.4375 0
-0.75 0.4375 0
-0.8125 0.5 0
-0.75 0.5 0
-0.75 0.25 0
-0.6875 0.25 0
-0.75 0.3125 0
-0.6875 0.3125 0
-0.6875 0.25 0
-0.625 0.25 0
-0.6875 0.3125 0
-0.625 0.3125 0
-0.75 0.3125 0
-0.6875 0.3125 0
-0.75 0.375 0
-0.6875 0.375 0
-0.6875 0.3125 0
-0.625 0.3125 0
-0.6875 0.375 0
-0.625 0.375 0
-0.5 0.125 0
-0.4375 0.125 0
-0.5 0.1875 0
-0.4375 0.1875 0
-0.4375 0.125 0
-0.375 0.125 0
-0.4375 0.1875 0
-0.375 0.1875 0
-0.5 0.1875 0
-0.4375 0.1875 0
-0.5 0.25 0
-0.4375 0.25 0
-0.4375 0.1875 0
-0.375 0.1875 0
-0.4375 0.25 0
-0.375 0.25 0
-0.125 0.125 0
-0.0625 0.125 0
-0.125 0.1875 0
-0.0625 0.1875 0
-0.0625 0.125 0
0 0.125 0
-0.0625 0.1875 0
0 0.1875 0
-0.125 0.1875 0
-0.0625 0.1875 0
-0.125 0.25 0
-0.0625 0.25 0
-0.0625 0.1875 0
0 0.1875 0
-0.0625 0.25 0
0 0.25 0
-0.875 0.5 0
-0.8125 0.5 0
-0.875 0.5625 0
-0.8125 0.5625 0
-0.8125 0.5 0
-0.75 0.5 0
-0.8125 0.5625 0
-0.75 0.5625 0
-0.875 0.5625 0
-0.8125 0.5625 0
-0.875 0.625 0
-0.8125 0.625 0
-0.8125 0.5625 0
-0.75 0.5625 0
-0.8125 0.625 0
-0.75 0.625 0
-0.125 -0.125 0
-0.0625 -0.125 0
-0.125 -0.0625 0
-0.0625 -0.0625 0
-0.0625 -0.125 0
0 -0.125 0
-0.0625 -0.0625 0
0 -0.0625 0
-0.125 -0.0625 0
-0.0625 -0.0625 0
-0.125 0 0
-0.0625 0 0
-0.125 0 0
-0.0625 0 0
-0.125 0.0625 0
-0.0625 0.0625 0
-0.125 0.0625 0
-0.0625 0.0625 0
-0.125 0.125 0
-0.0625 0.125 0
-0.0625 0.0625 0
0 0.0625 0
-0.0625 0.125 0
0 0.125 0
0.125 -0.5 0
0.1875 -0.5 0
0.125 -0.4375 0
0.1875 -0.4375 0
0.1875 -0.5 0
0.25 -0.5 0
0.1875 -0.4375 0
0.25 -0.4375 0
0.125 -0.4375 0
0.1875 -0.4375 0
0.125 -0.375 0
0.1875 -0.375 0
0.1875 -0.4375 0
0.25 -0.4375 0
0.1875 -0.375 0
0.25 -0.375 0
0.5 -0.625 0
0.5625 -0.625 0
0.5 -0.5625 0
0.5625 -0.5625 0
0.5 -0.5625 0
0.5625 -0.5625 0
0.5 -0.5 0
0.5625 -0.5 0
0.125 -0.375 0
0.1875 -0.375 0
0.125 -0.3125 0
0.1875 -0.3125 0
0.1875 -0.375 0
0.25 -0.375 0
0.1875 -0.3125 0
0.25 -0.3125 0
0.125 -0.3125 0
0.1875 -0.3125 0
0.125 -0.25 0
0.1875 -0.25 0
0.1875 -0.3125 0
0.25 -0.3125 0
0.1875 -0.25 0
0.25 -0.25 0
0.875 -0.75 0
0.9375 -0.75 0
0.875 -0.6875 0
0.9375 -0.6875 0
0.9375 -0.75 0
1 -0.75 0
0.9375 -0.6875 0
1 -0.6875 0
0.875 -0.6875 0
0.9375 -0.6875 0
0.875 -0.625 0
0.9375 -0.625 0
0.9375 -0.6875 0
1 -0.6875 0
0.9375 -0.625 0
1 -0.625 0
0.9375 -0.625 0
1 -0.625 0
0.9375 -0.5625 0
1 -0.5625 0
0.9375 -0.5625 0
1 -0.5625 0
0.9375 -0.5 0
1 -0.5 0
-0.75 0 0
-0.6875 0 0
-0.75 0.0625 0
-0.6875 0.0625 0
-0.6875 0 0
-0.625 0 0
-0.6875 0.0625 0
-0.625 0.0625 0
-0.75 0.0625 0
-0.6875 0.0625 0
-0.75 0.125 0
-0.6875 0.125 0
-0.6875 0.0625 0
-0.625 0.0625 0
-0.6875 0.125 0
-0.625 0.125 0
-0.75 0.125 0
-0.6875 0.125 0
-0.75 0.1875 0
-0.6875 0.1875 0
-0.6875 0.125 0
-0.625 0.125 0
-0.6875 0.1875 0
-0.625 0.1875 0
-0.75 0.1875 0
-0.6875 0.1875 0
-0.75 0.25 0
-0.6875 0.25 0
-0.6875 0.1875 0
-0.625 0.1875 0
-0.6875 0.25 0
-0.625 0.25 0
0.375 -0.5 0
0.4375 -0.5 0
0.375 -0.4375 0
0.4375 -0.4375 0
0.4375 -0.5 0
0.5 -0.5 0
0.4375 -0.4375 0
0.5 -0.4375 0
0.25 -0.375 0
0.3125 -0.375 0
0.25 -0.3125 0
0.3125 -0.3125 0
0.3125 -0.375 0
0.375 -0.375 0
0.3125 -0.3125 0
0.375 -0.3125 0
0.25 -0.3125 0
0.3125 -0.3125 0
0.25 -0.25 0
0.3125 -0.25 0
0.3125 -0.3125 0
0.375 -0.3125 0
0.3125 -0.25 0
0.375 -0.25 0
-0.375 0 0
-0.3125 0 0
-0.375 0.0625 0
-0.3125 0.0625 0
-0.3125 0 0
-0.25 0 0
-0.3125 0.0625 0
-0.25 0.0625 0
-0.375 0.0625 0
-0.3125 0.0625 0
-0.375 0.125 0
-0.3125 0.125 0
-0.3125 0.0625 0
-0.25 0.0625 0
-0.3125 0.125 0
-0.25 0.125 0
-0.25 0 0
[...]
  <PointData Scalars="scalars">
    <DataArray type="Float32" Name="U" format="ascii">
0 0 0 9.31239e-05 0 0 9.31239e-05 0.000187705 0 9.31239e-05 0 0.000204009 9.31239e-05 0.000187705 0.000204009 0.000383032 0 0 0.000187705 0.000285178 0 0 0.000285178 0.000367381 0.000187705 0.000285178 0.000383032 0.0005072 0 0.000204009 0 0.000403563 0 0.000403563 0 0.00082591 0.0005072 0.000580234 0.000709031 0.000554632 0.000403563 0.000575302 0.000614737 0.000809905 0.000575302 0.000685839 0.000809905 0.000940502 0.000614737 0.000809905 0.00082591 0.00114413 0.000809905 0.000940502 0.00114413 0.00131023 0.000735399 0.000709031 0.000962185 0.000862421 0.000962185 0.000862421 0.00130124 0.00109285 0.000367381 0.000397136 0.000498045 0.000535071 0.000397136 0.000421548 0.000535071 0.000583203 0.000498045 0.000535071 0.000580234 0.000599287 0.000535071 0.000583203 0.000599287 0.000716909 0.000580234 0.000599287 0.000567433 0.000603999 0.000567433 0.000603999 0.000554632 0.000496553 0.000554632 0.000496553 0.000417022 0.000302148 0.000496553 0.000652403 0.000302148 0.000401576 0.000302148 0.000401576 0 0 0.000285178 0.00032628 0.000396189 0.000454299 0.00032628 0.000367381 0.000454299 0.000498045 0.000396189 0.000454299 0.0005072 0.000543717 0.000454299 0.000498045 0.000543717 0.000580234 0 0 0.000183691 0.000211406 0 0 0.000211406 0.000222033 0.000183691 0.000211406 0.000367381 0.000397136 0.000211406 0.000222033 0.000397136 0.000421548 0.000383032 0.000445116 0.000505463 0.000571946 0.000445116 0.0005072 0.000571946 0.000608115 0.000505463 0.000571946 0.000685839 0.000735399 0.000571946 0.000608115 0.000735399 0.000709031 0.000421548 0.000442689 0.000583203 0.000776551 0 0 0.000222033 0.000221744 0 0 0.000221744 0.000207856 0.000222033 0.000221744 0.000421548 0.000442689 0.000221744 0.000207856 0.000442689 0.000490917 0 0 0.000207856 0.000179793 0 0 0.000179793 0.000133218 0.000207856 0.000179793 0.000490917 0.000503526 0.000179793 0.000133218 0.000503526 0.000436013 0.000709031 0.000631832 0.000862421 0.000651107 0.000631832 0.000554632 0.000651107 0.000417022 0.000862421 0.000651107 0.00109285 0.000681945 0 0.000762286 0 0.000905435 0.000762286 0.00145321 0.000905435 0.00172357 0 0.000905435 0 0.000972411 0.00131023 0.00130124 0.0017705 0.00173208 0 0.000972411 0 0.000920005 0 0.000920005 0 0.000722938 0.000920005 0.00175304 0.000722938 0.00138267 0.000204009 0.00029352 0.000303786 0.000410708 0.00029352 0.000383032 0.000410708 0.000505463 0.000303786 0.000410708 0.000403563 0.000575302 0.000410708 0.000505463 0.000575302 0.000685839 0 0 0.000133218 7.0713e-05 0 0 7.0713e-05 0 0.000133218 7.0713e-05 0.000436013 0.000260695 7.0713e-05 0 0.000260695 0 0 0.000412955 0 0.000591594 0.000412955 0.00082591 0.000591594 0.00112597 0 0.000591594 0 0.000762286 0.000591594 0.00112597 0.000762286 0.00145321 0 0.000722938 0 0.000400155 0.000722938 0.00138267 0.000400155 0.000764523 0 0.000400155 0 0 0.000400155 0.000764523 0 0 0.00198393 0.0021614 0.00218502 0.00238152 0.0021614 0.0022639 0.00238152 0.00249397 0.00218502 0.00238152 0.00235426 0.00256519 0.00238152 0.00249397 0.00256519 0.00268508 0.00172357 0.00206539 0.00180457 0.0021726 0.00206539 0.00235426 0.0021726 0.00247385 0.00180457 0.0021726 0.00184643 0.00222078 0.0021726 0.00247385 0.00222078 0.00252888 0.00235426 0.00256519 0.00247385 0.0026965 0.00256519 0.00268508 0.0026965 0.00282339 0.00247385 0.0026965 0.00252888 0.00275717 0.00139857 0.0011273 0.00158108 0.00126672 0.0011273 0.000794928 0.00126672 0.000886578 0.00158108 0.00126672 0.00176457 0.00141064 0.00126672 0.000886578 0.00141064 0.000984374 0.000940502 0.000979003 0.00112536 0.00113694 0.000979003 0.000962185 0.00113694 0.00113171 0.00112536 0.00113694 0.00131023 0.00130573 0.00113694 0.00113171 0.00130573 0.00130124 0.000417022 0.000359585 0.000295207 0.000197334 0.000359585 0.000302148 0.000197334 0.000151074 0.000197334 0.000151074 0 0 0.00114413 0.00122718 0.00132747 0.00145454 0.00122718 0.00131023 0.00145454 0.00154036 0.00132747 0.00145454 0.00154579 0.00168599 0.00145454 0.00154036 0.00168599 0.0017705 0.00154579 0.00168599 0.00176519 0.00192603 0.00168599 0.0017705 0.00192603 0.00201226 0.00176519 0.00192603 0.00198393 0.0021614 0.00192603 0.00201226 0.0021614 0.0022639 0.000685839 0.000710619 0.00081317 0.000835533 0.000710619 0.000735399 0.000835533 0.000848792 0.00081317 0.000835533 0.000940502 0.000979003 0.000835533 0.000848792 0.000979003 0.000962185 0.000905435 0.0013145 0.000938923 0.00139144 0.0013145 0.00172357 0.00139144 0.00180457 0.000938923 0.00139144 0.000972411 0.00142154 0.00139144 0.00180457 0.00142154 0.00184643 0.00145321 0.00174127 0.00158839 0.00191775 0.00174127 0.00198393 0.00191775 0.00218502 0.00158839 0.00191775 0.00172357 0.00206539 0.00191775 0.00218502 0.00206539 0.00235426 0.0017705 0.00175129 0.00201226 0.00202942 0.00175129 0.00173208 0.00202942 0.00196293 0.00201226 0.00202942 0.0022639 0.00228049 0.00202942 0.00196293 0.00228049 0.00220463 0.000794928 0.000412195 0.000886578 0.000456381 0.000412195 0 0.000456381 0 0.000886578 0.000456381 0.000984374 0.000505901 0.000456381 0 0.000505901 0 0.000972411 0.00142154 0.000946208 0.00140866 0.00142154 0.00184643 0.00140866 0.00182699 0.000946208 0.00140866 0.000920005 0.00133652 0.00140866 0.00182699 0.00133652 0.00175304 0.000651107 0.000534065 0.000666526 0.00046942 0.000534065 0.000417022 0.00046942 0.000295207 0.000666526 0.00046942 0.000681945 0.000403633 0.000681945 0.000403633 0.000720777 0.000385169 0.000720777 0.000385169 0.000794928 0.000412195 0.000385169 0 0.000412195 0 0.000599287 0.000658098 0.000601643 0.000650843 0.000658098 0.000716909 0.000650843 0.000756896 0.000601643 0.000650843 0.000603999 0.000634792 0.000650843 0.000756896 0.000634792 0.000760516 0.00126663 0.001528 0.00219018 0.00280328 0.00219018 0.00280328 0.00377529 0.00520776 0.000603999 0.000634792 0.000550276 0.000601939 0.000634792 0.000760516 0.000601939 0.000731873 0.000550276 0.000601939 0.000496553 0.000574478 0.000601939 0.000731873 0.000574478 0.000652403 0.000260695 0.000130348 0.000549485 0.00029536 0.000130348 0 0.00029536 0 0.000549485 0.00029536 0.00124294 0.000658672 0.00029536 0 0.000658672 0 0.000658672 0 0.00139902 0 0.00139902 0 0.00313545 0 0.00082591 0.00098502 0.000975939 0.00116701 0.00098502 0.00114413 0.00116701 0.00132747 0.000975939 0.00116701 0.00112597 0.00135727 0.00116701 0.00132747 0.00135727 0.00154579 0.00112597 0.00135727 0.00128959 0.0015509 0.00135727 0.00154579 0.0015509 0.00176519 0.00128959 0.0015509 0.00145321 0.00174127 0.0015509 0.00176519 0.00174127 0.00198393 0.00136143 0.00223211 0.00164456 0.00287313 0.00223211 0.00377529 0.00287313 0.00523779 0.000760516 0.00108977 0.000731873 0.00108396 0.00108977 0.00189449 0.00108396 0.00195436 0.000731873 0.00108396 0.000652403 0.00102122 0.00108396 0.00195436 0.00102122 0.0018989 0.00130124 0.00119704 0.00151666 0.00139813 0.00119704 0.00109285 0.00139813 0.00122604 0.00151666 0.00139813 0.00173208 0.00160275 0.00139813 0.00122604 0.00160275 0.00139857 0.00109285 0.000887399 0.00122604 0.00100334 0.000887399 0.000681945 0.00100334 0.000720777 0.00122604 0.00100334 0.00139857 0.0011273 0.00100334 0.000720777 0.0011273 0.000794928 0.000702643 0.00143123 0 0 0.00143123 0.00315678 0 0 0.000583203 0.000679877 0.000650056 0.000788292 0.000679877 0.000776551 0.000788292 0.00106002 0.000650056 0.000788292 0.000716909 0.000920757 0.000788292 0.00106002 0.000920757 0.00136143 0.00173208 0.00160275 0.00196293 0.00181665 0.00160275 0.00139857 0.00181665 0.00158108 0.00196293 0.00181665 0.00220463 0.00203087 0.00181665 0.00158108 0.00203087 0.00176457 0.000776551 0.00100622 0.00106002 0.00153515 0.00100622 0.00126663 0.00153515 0.00219018 0.00106002 0.00153515 0.00136143 0.00223211 0.00153515 0.00219018 0.00223211 0.00377529 0.000442689 0.000466803 0.00060962 0.000670993 0.000466803 0.000490917 0.000670993 0.000762873 0.00060962 0.000670993 0.000776551 0.00100622 0.000670993 0.000762873 0.00100622 0.00126663 0.000716909 0.000920757 0.000756896 0.00102802 0.000920757 0.00136143 0.00102802 0.00164456 0.000756896 0.00102802 0.000760516 0.00108977 0.00102802 0.00164456 0.00108977 0.00189449 0.0022639 0.00228049 0.00249397 0.00251095 0.00228049 0.00220463 0.00251095 0.00242477 0.00249397 0.00251095 0.00268508 0.00270543 0.00251095 0.00242477 0.00270543 0.00261287 0.000490917 0.000497221 0.000762873 0.000848883 0.000497221 0.000503526 0.000848883 0.000896832 0.000762873 0.000848883 0.00126663 0.001528 0.000848883 0.000896832 0.001528 0.00176165 0.00220463 0.00203087 0.00242477 0.00223374 0.00203087 0.00176457 0.00223374 0.00193751 0.00242477 0.00223374 0.00261287 0.00240507 0.00223374 0.00193751 0.00240507 0.00208702 0.00268508 0.00270543 0.00282339 0.00284051 0.00282339 0.00284051 0.00288665 0.00290862 0.000503526 0.000469769 0.000896832 0.000904585 0.000469769 0.000436013 0.000904585 0.000850507 0.000896832 0.000904585 0.00176165 0.00182389 0.000904585 0.000850507 0.00182389 0.0017756 0.00176457 0.00141064 0.00193751 0.00154722 0.00141064 0.000984374 0.00154722 0.00107892 0.00193751 0.00154722 0.00208702 0.0016661 0.00154722 0.00107892 0.0016661 0.00116052 0.000984374 0.000505901 0.00107892 0.000553992 0.000505901 0 0.000553992 0 0.00107892 0.000553992 0.00116052 0.00059584 0.000553992 0 0.00059584 0 0.0016661 0.00116052 0.00174767 0.00122067 0.00174767 0.00122067 0.00179185 0.00124775 0.00116052 0.00059584 0.00122067 0.000626426 0.00059584 0 0.000626426 0 0.00122067 0.000626426 0.00124775 0.000640838 0.000626426 0 0.000640838 0 0.000436013 0.000348354 0.000850507 0.000734698 0.000348354 0.000260695 0.000734698 0.000549485 0.000850507 0.000734698 0.0017756 0.00158636 0.000734698 0.000549485 0.00158636 0.00124294 0.00184643 0.00222078 0.00182699 0.0022001 0.00222078 0.00252888 0.0022001 0.00250637 0.00182699 0.0022001 0.00175304 0.0020947 0.0022001 0.00250637 0.0020947 0.00239383 0.00252888 0.00275717 0.00250637 0.00273136 0.00275717 0.00288665 0.00273136 0.00286229 0.00175304 0.0020947 0.00156785 0.00191306 0.0020947 0.00239383 0.00191306 0.00218596 0.00156785 0.00191306 0.00138267 0.00164526 0.00191306 0.00218596 0.00164526 0.00188596 0.000475795 0 0.000375521 0 0.000375521 0 0.00026107 0 0.000472826 0.00037438 0 0 0.00037438 0.000260796 0 0 0.000131545 0 0 0 0.00138267 0.00164526 0.00107359 0.00131275 0.00164526 0.00188596 0.00131275 0.00149963 0.00107359 0.00131275 0.000764523 0.000909439 0.00131275 0.00149963 0.000909439 0.00104246 0.00149963 0.00163641 0.00104246 0.00113928 0.00163641 0.00171563 0.00113928 0.00119402 0.000764523 0.000909439 0.000382262 0.000467737 0.000909439 0.00104246 0.000467737 0.000534656 0.000382262 0.000467737 0 0 0.000467737 0.000534656 0 0 0.00104246 0.00113928 0.000534656 0.00058407 0.00113928 0.00119402 0.00058407 0.000612338 0.000534656 0.00058407 0 0 0.00058407 0.000612338 0 0 0.0110334 0.0110786 0.0118158 0.0118462 0.0110465 0.0118158 0.0110987 0.0118539 0.0118158 0.0118462 0.0118539 0.0118812 0.000652403 0.00102122 0.000526989 0.000876849 0.00102122 0.0018989 0.000876849 0.0016936 0.000526989 0.000876849 0.000401576 0.000653093 0.000876849 0.0016936 0.000653093 0.00132382 0.00290862 0.00280903 0.00288132 0.00278782 0.00286229 0.00288132 0.00273438 0.00275858 0.00288132 0.00278782 0.00275858 0.00266553 0.000401576 0.000653093 0.000200788 0.000355471 0.000653093 0.00132382 0.000355471 0.000702643 0.000200788 0.000355471 0 0 0.000355471 0.000702643 0 0 0.0110786 0.0104662 0.0118462 0.0111991 0.0104662 0.00881397 0.0111991 0.00940468 0.0118462 0.0111991 0.0118812 0.0112012 0.0111991 0.00940468 0.0112012 0.00941812 0.0110987 0.0118539 0.0104867 0.0112093 0.0118539 0.0118812 0.0112093 0.0112049 0.0104867 0.0112093 0.00883028 0.00941366 0.0112093 0.0112049 0.00941366 0.00942227 0.00224344 0.00179185 0.00222631 0.00177346 0.000640838 0 0.000630597 0 0.000630597 0 0.000604564 0 0.000604564 0 0.000553186 0 0.000553186 0 0.000475795 0 0.000612338 0.00061246 0 0 0.00061246 0.000593511 0 0 0.000593511 0.000547068 0 0 0.000547068 0.000472826 0 0 0.00212654 0.00192391 0.00204642 0.00184859 0.00192391 0.00170198 0.00184859 0.00162663 0.00204642 0.00184859 0.00194772 0.00176232 0.00184859 0.00162663 0.00176232 0.00154731 0.00170198 0.0014453 0.00162663 0.00138654 0.0014453 0.00117817 0.00138654 0.00113291 0.00162663 0.00138654 0.00154731 0.00132439 0.00138654 0.00113291 0.00132439 0.00107836 0.00194772 0.00176232 0.00182233 0.00164658 0.00176232 0.00154731 0.00164658 0.00144725 0.00182233 0.00164658 0.00167929 0.00151913 0.00164658 0.00144725 0.00151913 0.00134465 0.00154731 0.00132439 0.00144725 0.00123472 0.00132439 0.00107836 0.00123472 0.00100545 0.00144725 0.00123472 0.00134465 0.00113936 0.00123472 0.00100545 0.00113936 0.000928852 0.00210143 0.00202954 0.00189743 0.0018299 0.00202954 0.00193812 0.0018299 0.00175056 0.00189743 0.0018299 0.0016759 0.00160793 0.0018299 0.00175056 0.00160793 0.00153473 0.00193812 0.00181828 0.00175056 0.00164001 0.00181828 0.00167929 0.00164001 0.00151638 0.00175056 0.00164001 0.00153473 0.0014394 0.00164001 0.00151638 0.0014394 0.00134034 0.0016759 0.00160793 0.00142087 0.00136893 0.00160793 0.00153473 0.00136893 0.00131207 0.00142087 0.00136893 0.00115738 0.00111754 0.00136893 0.00131207 0.00111754 0.00106739 0.00153473 0.0014394 0.00131207 0.00122655 0.0014394 0.00134034 0.00122655 0.00113436 0.00131207 0.00122655 0.00106739 0.000997903 0.00122655 0.00113436 0.000997903 0.000923929 0.001528 0.00164483 0.00216564 0.00222945 0.00164483 0.00176165 0.00222945 0.00233982 0.00216564 0.00222945 0.00280328 0.00322906 0.00222945 0.00233982 0.00322906 0.00337161 0.00280328 0.00322906 0.00400552 0.0041919 0.00322906 0.00337161 0.0041919 0.0044153 0.00400552 0.0041919 0.00520776 0.00581979 0.0041919 0.0044153 0.00581979 0.00609782 0.00176165 0.00179277 0.00233982 0.00243765 0.00179277 0.00182389 0.00243765 0.00245745 0.00233982 0.00243765 0.00337161 0.00351643 0.00243765 0.00245745 0.00351643 0.0035605 0.00182389 0.00179974 0.00245745 0.00247037 0.00179974 0.0017756 0.00247037 0.00240865 0.00245745 0.00247037 0.0035605 0.00358535 0.00247037 0.00240865 0.00358535 0.00351839 0.00337161 0.00351643 0.0044153 0.00461364 0.00351643 0.0035605 0.00461364 0.00467753 0.0044153 0.00461364 0.00609782 0.00636245 0.00461364 0.00467753 0.00636245 0.0064506 0.0035605 0.00358535 0.00467753 0.00471986 0.00358535 0.00351839 0.00471986 0.0046433 0.00467753 0.00471986 0.0064506 0.00651202 0.00471986 0.0046433 0.00651202 0.00642688 0.0017756 0.00168098 0.00240865 0.00233736 0.00168098 0.00158636 0.00233736 0.00217219 0.00240865 0.00233736 0.00351839 0.00343003 0.00233736 0.00217219 0.00343003 0.00322581 0.00158636 0.00141465 0.00217219 0.00200062 0.00141465 0.00124294 0.00200062 0.00170209 0.00217219 0.00200062 0.00322581 0.00299403 0.00200062 0.00170209 0.00299403 0.0025918 0.00351839 0.00343003 0.0046433 0.0045412 0.00343003 0.00322581 0.0045412 0.00428799 0.0046433 0.0045412 0.00642688 0.00630969 0.0045412 0.00428799 0.00630969 0.00600454 0.00322581 0.00299403 0.00428799 0.00400513 0.00299403 0.0025918 0.00400513 0.00348869 0.00428799 0.00400513 0.00600454 0.00566214 0.00400513 0.00348869 0.00566214 0.00501265 0.00124294 0.000950804 0.00170209 0.00138718 0.000950804 0.000658672 0.00138718 0.00102885 0.00170209 0.00138718 0.0025918 0.00217961 0.00138718 0.00102885 0.00217961 0.00139902 0.0025918 0.00217961 0.00348869 0.00294207 0.00217961 0.00139902 0.00294207 0.00226723 0.00348869 0.00294207 0.00501265 0.00433385 0.00294207 0.00226723 0.00433385 0.00313545 0.00164456 0.00225884 0.00176953 0.00233127 0.00225884 0.00287313 0.00233127 0.00330968 0.00176953 0.00233127 0.00189449 0.00244576 0.00233127 0.00330968 0.00244576 0.00345589 0.00287313 0.00405546 0.00330968 0.00425114 0.00405546 0.00523779 0.00425114 0.00586205 0.00330968 0.00425114 0.00345589 0.00448064 0.00425114 0.00586205 0.00448064 0.00614718 0.00189449 0.00244576 0.00192443 0.00254637 0.00244576 0.00345589 0.00254637 0.00360523 0.00192443 0.00254637 0.00195436 0.00256499 0.00254637 0.00360523 0.00256499 0.00364978 0.00345589 0.00448064 0.00360523 0.00468491 0.00448064 0.00614718 0.00468491 0.00641854 0.00360523 0.00468491 0.00364978 0.00475047 0.00468491 0.00641854 0.00475047 0.00650922 0.00195436 0.00256499 0.00192663 0.00257723 0.00256499 0.00364978 0.00257723 0.00367484 0.00192663 0.00257723 0.0018989 0.00251183 0.00257723 0.00367484 0.00251183 0.00360479 0.00364978 0.00475047 0.00367484 0.00479423 0.00475047 0.00650922 0.00479423 0.00657301 0.00367484 0.00479423 0.00360479 0.00471551 0.00479423 0.00657301 0.00471551 0.00648661 0.0018989 0.00251183 0.00179625 0.00243587 0.00251183 0.00360479 0.00243587 0.00351361 0.00179625 0.00243587 0.0016936 0.00226241 0.00243587 0.00351361 0.00226241 0.00330312 0.00360479 0.00471551 0.00351361 0.00461101 0.00471551 0.00648661 0.00461101 0.0063678 0.00351361 0.00461101 0.00330312 0.00435191 0.00461101 0.0063678 0.00435191 0.00605775 0.0016936 0.00226241 0.00150871 0.00208299 0.00226241 0.00330312 0.00208299 0.00306474 0.00150871 0.00208299 0.00132382 0.00177031 0.00208299 0.00306474 0.00177031 0.00265176 0.0026965 0.00275995 0.00272683 0.00280402 0.00275995 0.00282339 0.00280402 0.00285502 0.00272683 0.00280402 0.00275717 0.00282191 0.00280402 0.00285502 0.00282191 0.00288665 0.00330312 0.00435191 0.00306474 0.00406299 0.00435191 0.00605775 0.00406299 0.00571022 0.00306474 0.00406299 0.00265176 0.00353708 0.00406299 0.00571022 0.00353708 0.00505268 0.00132382 0.00177031 0.00101323 0.00144263 0.00177031 0.00265176 0.00144263 0.0022276 0.00101323 0.00144263 0.000702643 0.00106694 0.00144263 0.0022276 0.00106694 0.00143123 0.00265176 0.00353708 0.0022276 0.00298056 0.00353708 0.00505268 0.00298056 0.0043657 0.0022276 0.00298056 0.00143123 0.002294 0.00298056 0.0043657 0.002294 0.00315678 0.00377529 0.00449152 0.00450654 0.00595129 0.00449152 0.00520776 0.00595129 0.00668886 0.00450654 0.00595129 0.00523779 0.00670135 0.00595129 0.00668886 0.00670135 0.00754445 0.00167929 0.00151913 0.00151638 0.00136534 0.00151913 0.00134465 0.00136534 0.00120197 0.00151638 0.00136534 0.00134034 0.00120024 0.00136534 0.00120197 0.00120024 0.00105589 0.00134465 0.00113936 0.00120197 0.00103037 0.00113936 0.000928852 0.00103037 0.000836518 0.00120197 0.00103037 0.00105589 0.000903359 0.00103037 0.000836518 0.000903359 0.000734663 0.00134034 0.00120024 0.00113436 0.0010277 0.00120024 0.00105589 0.0010277 0.000902319 0.00113436 0.0010277 0.000923929 0.000833578 0.0010277 0.000902319 0.000833578 0.000733147 0.00105589 0.000903359 0.000902319 0.00076735 0.000903359 0.000734663 0.00076735 0.000624512 0.000902319 0.00076735 0.000733147 0.000623944 0.00076735 0.000624512 0.000623944 0.000508139 0.000928852 0.000708678 0.000836518 0.000637782 0.000708678 0.000475795 0.000637782 0.000425658 0.000836518 0.000637782 0.000734663 0.000559304 0.000637782 0.000425658 0.000559304 0.000375521 0.00520776 0.00581979 0.00668886 0.00741059 0.00581979 0.00609782 0.00741059 0.00778167 0.00668886 0.00741059 0.00754445 0.00837388 0.00741059 0.00778167 0.00837388 0.00880009 0.000734663 0.000559304 0.000624512 0.000476093 0.000559304 0.000375521 0.000476093 0.000318296 0.000624512 0.000476093 0.000508139 0.000387592 0.000476093 0.000318296 0.000387592 0.00026107 0.00523779 0.00670135 0.00586205 0.00743577 0.00670135 0.00754445 0.00743577 0.00838629 0.00586205 0.00743577 0.00614718 0.00781478 0.00743577 0.00838629 0.00781478 0.0088207 0.00754445 0.00837388 0.00838629 0.00931509 0.00837388 0.00880009 0.00931509 0.00979777 0.00838629 0.00931509 0.0088207 0.00980631 0.00931509 0.00979777 0.00980631 0.010323 0.000923929 0.000833578 0.00070443 0.000635117 0.000833578 0.000733147 0.000635117 0.000557747 0.00070443 0.000635117 0.000472826 0.000423603 0.000635117 0.000557747 0.000423603 0.00037438 0.00609782 0.00636245 0.00778167 0.00810957 0.00636245 0.0064506 0.00810957 0.00822245 0.00778167 0.00810957 0.00880009 0.00918619 0.00810957 0.00822245 0.00918619 0.00932158 0.000733147 0.000623944 0.000557747 0.00