# vtk DataFile Version 3.0
#This file was generated by the deal.II library on 2021/4/23 at 0:45:43
ASCII
DATASET UNSTRUCTURED_GRID

FIELD FieldData 2
CYCLE 1 1 int
118
TIME 1 1 double
0.236
POINTS 5544 double
-1 -1 0
-0.75 -1 0
-1 -0.75 0
-0.75 -0.75 0
-0.75 -1 0
-0.5 -1 0
-0.75 -0.75 0
-0.5 -0.75 0
-1 -0.75 0
-0.75 -0.75 0
-1 -0.5 0
-0.75 -0.5 0
-0.75 -0.75 0
-0.5 -0.75 0
-0.75 -0.5 0
-0.5 -0.5 0
-0.5 -1 0
-0.25 -1 0
-0.5 -0.75 0
-0.25 -0.75 0
-0.25 -1 0
0 -1 0
-0.25 -0.75 0
0 -0.75 0
-0.5 -0.75 0
-0.25 -0.75 0
-0.5 -0.5 0
-0.25 -0.5 0
-1 -0.5 0
-0.75 -0.5 0
-1 -0.25 0
-0.75 -0.25 0
-0.75 -0.5 0
-0.5 -0.5 0
-0.75 -0.25 0
-0.5 -0.25 0
-1 -0.25 0
-0.75 -0.25 0
-1 0 0
-0.75 0 0
-0.75 -0.25 0
-0.5 -0.25 0
-0.75 0 0
-0.5 0 0
-0.5 -0.5 0
-0.25 -0.5 0
-0.5 -0.25 0
-0.25 -0.25 0
-0.5 -0.25 0
-0.25 -0.25 0
-0.5 0 0
-0.25 0 0
-1 0 0
-0.75 0 0
-1 0.25 0
-0.75 0.25 0
-0.75 0 0
-0.5 0 0
-0.75 0.25 0
-0.5 0.25 0
-1 0.25 0
-0.75 0.25 0
-1 0.5 0
-0.75 0.5 0
-0.5 0 0
-0.25 0 0
-0.5 0.25 0
-0.25 0.25 0
-1 0.5 0
-0.75 0.5 0
-1 0.75 0
-0.75 0.75 0
-1 0.75 0
-0.75 0.75 0
-1 1 0
-0.75 1 0
-0.25 -0.75 0
-0.125 -0.75 0
-0.25 -0.625 0
-0.125 -0.625 0
-0.125 -0.75 0
0 -0.75 0
-0.125 -0.625 0
0 -0.625 0
-0.25 -0.625 0
-0.125 -0.625 0
-0.25 -0.5 0
-0.125 -0.5 0
-0.125 -0.625 0
0 -0.625 0
-0.125 -0.5 0
0 -0.5 0
-0.25 -0.5 0
-0.125 -0.5 0
-0.25 -0.375 0
-0.125 -0.375 0
-0.125 -0.5 0
0 -0.5 0
-0.125 -0.375 0
0 -0.375 0
-0.25 -0.375 0
-0.125 -0.375 0
-0.25 -0.25 0
-0.125 -0.25 0
-0.125 -0.375 0
0 -0.375 0
-0.125 -0.25 0
0 -0.25 0
0 -0.75 0
0.125 -0.75 0
0 -0.625 0
0.125 -0.625 0
0 -1 0
0.125 -1 0
0 -0.875 0
0.125 -0.875 0
0.125 -1 0
0.25 -1 0
0.125 -0.875 0
0.25 -0.875 0
0 -0.875 0
0.125 -0.875 0
0 -0.75 0
0.125 -0.75 0
0.125 -0.875 0
0.25 -0.875 0
0.125 -0.75 0
0.25 -0.75 0
0.875 -1 0
1 -1 0
0.875 -0.875 0
1 -0.875 0
0.25 -1 0
0.375 -1 0
0.25 -0.875 0
0.375 -0.875 0
0.375 -1 0
0.5 -1 0
0.375 -0.875 0
0.5 -0.875 0
-0.25 -0.25 0
-0.125 -0.25 0
-0.25 -0.125 0
-0.125 -0.125 0
-0.125 -0.25 0
0 -0.25 0
-0.125 -0.125 0
0 -0.125 0
-0.25 -0.125 0
-0.125 -0.125 0
-0.25 0 0
-0.125 0 0
-0.125 -0.125 0
0 -0.125 0
-0.125 0 0
0 0 0
-0.75 0.25 0
-0.625 0.25 0
-0.75 0.375 0
-0.625 0.375 0
-0.625 0.25 0
-0.5 0.25 0
-0.625 0.375 0
-0.5 0.375 0
-0.75 0.375 0
-0.625 0.375 0
-0.75 0.5 0
-0.625 0.5 0
-0.625 0.375 0
-0.5 0.375 0
-0.625 0.5 0
-0.5 0.5 0
-0.25 0 0
-0.125 0 0
-0.25 0.125 0
-0.125 0.125 0
-0.125 0 0
0 0 0
-0.125 0.125 0
0 0.125 0
-0.25 0.125 0
-0.125 0.125 0
-0.25 0.25 0
-0.125 0.25 0
-0.125 0.125 0
0 0.125 0
-0.125 0.25 0
0 0.25 0
0 -0.125 0
0.125 -0.125 0
0 0 0
0.125 0 0
-0.25 0.25 0
-0.125 0.25 0
-0.25 0.375 0
-0.125 0.375 0
-0.125 0.25 0
0 0.25 0
-0.125 0.375 0
0 0.375 0
-0.25 0.375 0
-0.125 0.375 0
-0.25 0.5 0
-0.125 0.5 0
-0.125 0.375 0
0 0.375 0
-0.125 0.5 0
0 0.5 0
-0.5 0.25 0
-0.375 0.25 0
-0.5 0.375 0
-0.375 0.375 0
-0.375 0.25 0
-0.25 0.25 0
-0.375 0.375 0
-0.25 0.375 0
-0.5 0.375 0
-0.375 0.375 0
-0.5 0.5 0
-0.375 0.5 0
-0.375 0.375 0
-0.25 0.375 0
-0.375 0.5 0
-0.25 0.5 0
-0.75 0.5 0
-0.625 0.5 0
-0.75 0.625 0
-0.625 0.625 0
-0.625 0.5 0
-0.5 0.5 0
-0.625 0.625 0
-0.5 0.625 0
-0.75 0.625 0
-0.625 0.625 0
-0.75 0.75 0
-0.625 0.75 0
-0.625 0.625 0
-0.5 0.625 0
-0.625 0.75 0
-0.5 0.75 0
-0.75 0.75 0
-0.625 0.75 0
-0.75 0.875 0
-0.625 0.875 0
-0.625 0.75 0
-0.5 0.75 0
-0.625 0.875 0
-0.5 0.875 0
-0.75 0.875 0
-0.625 0.875 0
-0.75 1 0
-0.625 1 0
-0.625 0.875 0
-0.5 0.875 0
-0.625 1 0
-0.5 1 0
-0.5 0.5 0
-0.375 0.5 0
-0.5 0.625 0
-0.375 0.625 0
-0.375 0.5 0
-0.25 0.5 0
-0.375 0.625 0
-0.25 0.625 0
-0.5 0.625 0
-0.375 0.625 0
-0.5 0.75 0
-0.375 0.75 0
-0.375 0.625 0
-0.25 0.625 0
-0.375 0.75 0
-0.25 0.75 0
-0.25 0.5 0
-0.125 0.5 0
-0.25 0.625 0
-0.125 0.625 0
-0.125 0.5 0
0 0.5 0
-0.125 0.625 0
0 0.625 0
-0.25 0.625 0
-0.125 0.625 0
-0.25 0.75 0
-0.125 0.75 0
-0.125 0.625 0
0 0.625 0
-0.125 0.75 0
0 0.75 0
-0.5 0.75 0
-0.375 0.75 0
-0.5 0.875 0
-0.375 0.875 0
-0.375 0.75 0
-0.25 0.75 0
-0.375 0.875 0
-0.25 0.875 0
-0.5 0.875 0
-0.375 0.875 0
-0.5 1 0
-0.375 1 0
-0.375 0.875 0
-0.25 0.875 0
-0.375 1 0
-0.25 1 0
-0.25 0.75 0
-0.125 0.75 0
-0.25 0.875 0
-0.125 0.875 0
-0.125 0.75 0
0 0.75 0
-0.125 0.875 0
0 0.875 0
-0.25 0.875 0
-0.125 0.875 0
-0.25 1 0
-0.125 1 0
-0.125 0.875 0
0 0.875 0
-0.125 1 0
0 1 0
0.75 -0.875 0
0.8125 -0.875 0
0.75 -0.8125 0
0.8125 -0.8125 0
0.8125 -0.875 0
0.875 -0.875 0
0.8125 -0.8125 0
0.875 -0.8125 0
0.375 -0.75 0
0.4375 -0.75 0
0.375 -0.6875 0
0.4375 -0.6875 0
0.375 -0.6875 0
0.4375 -0.6875 0
0.375 -0.625 0
0.4375 -0.625 0
0.125 -0.75 0
0.1875 -0.75 0
0.125 -0.6875 0
0.1875 -0.6875 0
0.1875 -0.75 0
0.25 -0.75 0
0.1875 -0.6875 0
0.25 -0.6875 0
0.125 -0.6875 0
0.1875 -0.6875 0
0.125 -0.625 0
0.1875 -0.625 0
0.1875 -0.6875 0
0.25 -0.6875 0
0.1875 -0.625 0
0.25 -0.625 0
0.25 -0.625 0
0.3125 -0.625 0
0.25 -0.5625 0
0.3125 -0.5625 0
0.3125 -0.625 0
0.375 -0.625 0
0.3125 -0.5625 0
0.375 -0.5625 0
0.5 -0.875 0
0.5625 -0.875 0
0.5 -0.8125 0
0.5625 -0.8125 0
0.5625 -0.875 0
0.625 -0.875 0
0.5625 -0.8125 0
0.625 -0.8125 0
0.625 -0.875 0
0.6875 -0.875 0
0.625 -0.8125 0
0.6875 -0.8125 0
0.6875 -0.875 0
0.75 -0.875 0
0.6875 -0.8125 0
0.75 -0.8125 0
0.9375 -0.75 0
1 -0.75 0
0.9375 -0.6875 0
1 -0.6875 0
0.9375 -0.6875 0
1 -0.6875 0
0.9375 -0.625 0
1 -0.625 0
0.125 -0.1875 0
0.1875 -0.1875 0
0.125 -0.125 0
0.1875 -0.125 0
0.25 -0.0625 0
0.3125 -0.0625 0
0.25 0 0
0.3125 0 0
0.3125 -0.0625 0
0.375 -0.0625 0
0.3125 0 0
0.375 0 0
0 -0.625 0
0.0625 -0.625 0
0 -0.5625 0
0.0625 -0.5625 0
0.0625 -0.625 0
0.125 -0.625 0
0.0625 -0.5625 0
0.125 -0.5625 0
0 -0.5625 0
0.0625 -0.5625 0
0 -0.5 0
0.0625 -0.5 0
0.0625 -0.5625 0
0.125 -0.5625 0
0.0625 -0.5 0
0.125 -0.5 0
0.125 -0.625 0
0.1875 -0.625 0
0.125 -0.5625 0
0.1875 -0.5625 0
0.1875 -0.625 0
0.25 -0.625 0
0.1875 -0.5625 0
0.25 -0.5625 0
0.125 -0.5625 0
0.1875 -0.5625 0
0.125 -0.5 0
0.1875 -0.5 0
0.1875 -0.5625 0
0.25 -0.5625 0
0.1875 -0.5 0
0.25 -0.5 0
0 -0.5 0
0.0625 -0.5 0
0 -0.4375 0
0.0625 -0.4375 0
0.0625 -0.5 0
0.125 -0.5 0
0.0625 -0.4375 0
0.125 -0.4375 0
0 -0.4375 0
0.0625 -0.4375 0
0 -0.375 0
0.0625 -0.375 0
0.0625 -0.4375 0
0.125 -0.4375 0
0.0625 -0.375 0
0.125 -0.375 0
0.125 -0.5 0
0.1875 -0.5 0
0.125 -0.4375 0
0.1875 -0.4375 0
0.1875 -0.5 0
0.25 -0.5 0
0.1875 -0.4375 0
0.25 -0.4375 0
0.125 -0.4375 0
0.1875 -0.4375 0
0.125 -0.375 0
0.1875 -0.375 0
0.1875 -0.4375 0
0.25 -0.4375 0
0.1875 -0.375 0
0.25 -0.375 0
0 -0.375 0
0.0625 -0.375 0
0 -0.3125 0
0.0625 -0.3125 0
0.0625 -0.375 0
0.125 -0.375 0
0.0625 -0.3125 0
0.125 -0.3125 0
0 -0.3125 0
0.0625 -0.3125 0
0 -0.25 0
0.0625 -0.25 0
0.0625 -0.3125 0
0.125 -0.3125 0
0.0625 -0.25 0
0.125 -0.25 0
0.75 -1 0
0.8125 -1 0
0.75 -0.9375 0
0.8125 -0.9375 0
0.8125 -1 0
0.875 -1 0
0.8125 -0.9375 0
0.875 -0.9375 0
0.75 -0.9375 0
0.8125 -0.9375 0
0.75 -0.875 0
0.8125 -0.875 0
0.8125 -0.9375 0
0.875 -0.9375 0
0.8125 -0.875 0
0.875 -0.875 0
0.875 -0.875 0
0.9375 -0.875 0
0.875 -0.8125 0
0.9375 -0.8125 0
0.9375 -0.875 0
1 -0.875 0
0.9375 -0.8125 0
1 -0.8125 0
0.875 -0.8125 0
0.9375 -0.8125 0
0.875 -0.75 0
0.9375 -0.75 0
0.9375 -0.8125 0
1 -0.8125 0
0.9375 -0.75 0
1 -0.75 0
0.25 -0.875 0
0.3125 -0.875 0
0.25 -0.8125 0
0.3125 -0.8125 0
0.3125 -0.875 0
0.375 -0.875 0
0.3125 -0.8125 0
0.375 -0.8125 0
0.25 -0.8125 0
0.3125 -0.8125 0
0.25 -0.75 0
0.3125 -0.75 0
0.3125 -0.8125 0
0.375 -0.8125 0
0.3125 -0.75 0
0.375 -0.75 0
0.375 -0.875 0
0.4375 -0.875 0
0.375 -0.8125 0
0.4375 -0.8125 0
0.4375 -0.875 0
0.5 -0.875 0
0.4375 -0.8125 0
0.5 -0.8125 0
0.375 -0.8125 0
0.4375 -0.8125 0
0.375 -0.75 0
0.4375 -0.75 0
0.4375 -0.8125 0
0.5 -0.8125 0
0.4375 -0.75 0
0.5 -0.75 0
0.25 -0.75 0
0.3125 -0.75 0
0.25 -0.6875 0
0.3125 -0.6875 0
0.3125 -0.75 0
0.375 -0.75 0
0.3125 -0.6875 0
0.375 -0.6875 0
0.25 -0.6875 0
0.3125 -0.6875 0
0.25 -0.625 0
0.3125 -0.625 0
0.3125 -0.6875 0
0.375 -0.6875 0
0.3125 -0.625 0
0.375 -0.625 0
0.5 -1 0
0.5625 -1 0
0.5 -0.9375 0
0.5625 -0.9375 0
0.5625 -1 0
0.625 -1 0
0.5625 -0.9375 0
0.625 -0.9375 0
0.5 -0.9375 0
0.5625 -0.9375 0
0.5 -0.875 0
0.5625 -0.875 0
0.5625 -0.9375 0
0.625 -0.9375 0
0.5625 -0.875 0
0.625 -0.875 0
0.625 -1 0
0.6875 -1 0
0.625 -0.9375 0
0.6875 -0.9375 0
0.6875 -1 0
0.75 -1 0
0.6875 -0.9375 0
0.75 -0.9375 0
0.625 -0.9375 0
0.6875 -0.9375 0
0.625 -0.875 0
0.6875 -0.875 0
0.6875 -0.9375 0
0.75 -0.9375 0
0.6875 -0.875 0
0.75 -0.875 0
0 -0.25 0
0.0625 -0.25 0
0 -0.1875 0
0.0625 -0.1875 0
0.0625 -0.25 0
0.125 -0.25 0
0.0625 -0.1875 0
0.125 -0.1875 0
0 -0.1875 0
0.0625 -0.1875 0
0 -0.125 0
0.0625 -0.125 0
0.0625 -0.1875 0
0.125 -0.1875 0
0.0625 -0.125 0
0.125 -0.125 0
0.125 -0.125 0
0.1875 -0.125 0
0.125 -0.0625 0
0.1875 -0.0625 0
0.1875 -0.125 0
0.25 -0.125 0
0.1875 -0.0625 0
0.25 -0.0625 0
0.125 -0.0625 0
0.1875 -0.0625 0
0.125 0 0
0.1875 0 0
0.1875 -0.0625 0
0.25 -0.0625 0
0.1875 0 0
0.25 0 0
0.625 -0.75 0
0.6875 -0.75 0
0.625 -0.6875 0
0.6875 -0.6875 0
0.6875 -0.75 0
0.75 -0.75 0
0.6875 -0.6875 0
0.75 -0.6875 0
0.75 -0.75 0
0.8125 -0.75 0
0.75 -0.6875 0
0.8125 -0.6875 0
0.25 -0.375 0
0.3125 -0.375 0
0.25 -0.3125 0
0.3125 -0.3125 0
0.25 -0.3125 0
0.3125 -0.3125 0
0.25 -0.25 0
0.3125 -0.25 0
0.25 -0.25 0
0.3125 -0.25 0
0.25 -0.1875 0
0.3125 -0.1875 0
0.5 -0.6875 0
0.53125 -0.6875 0
0.5 -0.65625 0
0.53125 -0.65625 0
0.53125 -0.6875 0
0.5625 -0.6875 0
0.53125 -0.65625 0
0.5625 -0.65625 0
0.5 -0.65625 0
0.53125 -0.65625 0
0.5 -0.625 0
0.53125 -0.625 0
0.53125 -0.65625 0
0.5625 -0.65625 0
0.53125 -0.625 0
0.5625 -0.625 0
0.5625 -0.6875 0
0.59375 -0.6875 0
0.5625 -0.65625 0
0.59375 -0.65625 0
0.59375 -0.6875 0
0.625 -0.6875 0
0.59375 -0.65625 0
0.625 -0.65625 0
0.75 -0.8125 0
0.78125 -0.8125 0
0.75 -0.78125 0
0.78125 -0.78125 0
0.78125 -0.8125 0
0.8125 -0.8125 0
0.78125 -0.78125 0
0.8125 -0.78125 0
0.75 -0.78125 0
0.78125 -0.78125 0
0.75 -0.75 0
0.78125 -0.75 0
0.78125 -0.78125 0
0.8125 -0.78125 0
0.78125 -0.75 0
0.8125 -0.75 0
0.8125 -0.8125 0
0.84375 -0.8125 0
0.8125 -0.78125 0
0.84375 -0.78125 0
0.84375 -0.8125 0
0.875 -0.8125 0
0.84375 -0.78125 0
0.875 -0.78125 0
0.8125 -0.78125 0
0.84375 -0.78125 0
0.8125 -0.75 0
0.84375 -0.75 0
[...]
POINT_DATA 5544
SCALARS U double 1
LOOKUP_TABLE default
0 0 0 6.17702e-05 0 0 6.17702e-05 0.000122964 0 6.17702e-05 0 0.000156521 6.17702e-05 0.000122964 0.000156521 0.000278174 0 0 0.000122964 0.000177508 0 0 0.000177508 0.000266627 0.000122964 0.000177508 0.000278174 0.000352042 0 0.000156521 0 0.000341688 0.000156521 0.000278174 0.000341688 0.000550896 0 0.000341688 0 0.000665751 0.000341688 0.000550896 0.000665751 0.00101016 0.000278174 0.000352042 0.000550896 0.000538635 0.000550896 0.000538635 0.00101016 0.000804195 0 0.000665751 0 0.00106736 0.000665751 0.00101016 0.00106736 0.00159267 0 0.00106736 0 0.00123154 0.00101016 0.000804195 0.00159267 0.00118527 0 0.00123154 0 0.000865276 0 0.000865276 0 0 0.000177508 0.000222067 0.000264775 0.000308325 0.000222067 0.000266627 0.000308325 0.000397894 0.000264775 0.000308325 0.000352042 0.000391119 0.000308325 0.000397894 0.000391119 0.000517511 0.000352042 0.000391119 0.000445338 0.00045671 0.000391119 0.000517511 0.00045671 0.00057959 0.000445338 0.00045671 0.000538635 0.000496091 0.00045671 0.00057959 0.000496091 0.00056002 0.000266627 0.00039661 0.000397894 0.00064364 0 0 0.000133313 0.000188789 0 0 0.000188789 0.000280289 0.000133313 0.000188789 0.000266627 0.00039661 0.000188789 0.000280289 0.00039661 0.000664222 0 0 0.000415855 0 0 0 0.000280289 0.000433603 0 0 0.000433603 0.000608123 0.000538635 0.000496091 0.000671415 0.000492764 0.000496091 0.00056002 0.000492764 0.00039989 0.000671415 0.000492764 0.000804195 0.000505786 0.000492764 0.00039989 0.000505786 0 0.00106736 0.00133002 0.00114945 0.00157615 0.00133002 0.00159267 0.00157615 0.00174409 0.00114945 0.00157615 0.00123154 0.00161725 0.00157615 0.00174409 0.00161725 0.00180982 0.000804195 0.000505786 0.00099473 0.000552079 0.000505786 0 0.000552079 0 0.00099473 0.000552079 0.00118527 0.000647408 0.000552079 0 0.000647408 0 0.00039989 0.000581768 0 0 0.00118527 0.000647408 0.00130067 0.000722265 0.000647408 0 0.000722265 0 0.00130067 0.000722265 0.00134369 0.000737913 0.000722265 0 0.000737913 0 0.00159267 0.00138897 0.00174409 0.00166426 0.00138897 0.00118527 0.00166426 0.00130067 0.00174409 0.00166426 0.00180982 0.00171657 0.00166426 0.00130067 0.00171657 0.00134369 0.00123154 0.00161725 0.00104841 0.00147981 0.00161725 0.00180982 0.00147981 0.00165158 0.00104841 0.00147981 0.000865276 0.00112948 0.00147981 0.00165158 0.00112948 0.00126685 0.000865276 0.00112948 0.000432638 0.000616706 0.00112948 0.00126685 0.000616706 0.000688886 0.000432638 0.000616706 0 0 0.000616706 0.000688886 0 0 0.00180982 0.00171657 0.00165158 0.00156643 0.00171657 0.00134369 0.00156643 0.00122425 0.00165158 0.00156643 0.00126685 0.00120057 0.00156643 0.00122425 0.00120057 0.000937998 0.00134369 0.000737913 0.00122425 0.000672225 0.000737913 0 0.000672225 0 0.00122425 0.000672225 0.000937998 0.00051508 0.000672225 0 0.00051508 0 0.00126685 0.00120057 0.000688886 0.000653051 0.00120057 0.000937998 0.000653051 0.000510216 0.000688886 0.000653051 0 0 0.000653051 0.000510216 0 0 0.000937998 0.00051508 0.000510216 0.000280213 0.00051508 0 0.000280213 0 0.000510216 0.000280213 0 0 0.000280213 0 0 0 0.000680667 0.00058092 0.00126079 0.0010774 0.00058092 0.000415855 0.0010774 0.000765683 0.00115165 0.00145073 0.00169739 0.00220873 0.00169739 0.00220873 0.00243093 0.00326895 0.00039661 0.000530416 0.000520125 0.000687526 0.000530416 0.000664222 0.000687526 0.000936024 0.000520125 0.000687526 0.00064364 0.000883573 0.000687526 0.000936024 0.000883573 0.00124312 0.00124312 0.0017392 0.00157956 0.00228411 0.0017392 0.00243093 0.00228411 0.003303 0.000608123 0.000691297 0.00107297 0.00124171 0.000691297 0.000730409 0.00124171 0.00133 0.000730409 0.000734805 0.00133 0.00134432 0.000734805 0.000680667 0.00134432 0.00126079 0.000712236 0 0.00118453 0 0.00118453 0 0.00197445 0 0.000822987 0.00124346 0.000581768 0.000888041 0.000760049 0.00122018 0 0 0.00122018 0.00200159 0 0 0.000397894 0.000520767 0.000457702 0.000579931 0.000520767 0.00064364 0.000579931 0.000783668 0.000457702 0.000579931 0.000517511 0.000650868 0.000579931 0.000783668 0.000650868 0.000899775 0.00064364 0.000883573 0.000783668 0.00109123 0.000883573 0.00124312 0.00109123 0.00157956 0.000783668 0.00109123 0.000899775 0.00128712 0.00109123 0.00157956 0.00128712 0.00193237 0.000517511 0.000650868 0.00054855 0.000707758 0.000650868 0.000899775 0.000707758 0.00099325 0.00054855 0.000707758 0.00057959 0.000735232 0.000707758 0.00099325 0.000735232 0.00104501 0.000899775 0.00128712 0.00099325 0.00144996 0.00128712 0.00193237 0.00144996 0.00223604 0.00099325 0.00144996 0.00104501 0.00153125 0.00144996 0.00223604 0.00153125 0.00240114 0.00057959 0.000735232 0.000569805 0.00073554 0.000735232 0.00104501 0.00073554 0.00105168 0.000569805 0.00073554 0.00056002 0.000685953 0.00073554 0.00105168 0.000685953 0.000976074 0 0 0.000300722 0.000253315 0 0 0.000253315 0.000207928 0.000300722 0.000253315 0.000680667 0.00058092 0.000253315 0.000207928 0.00058092 0.000415855 0.000415855 0.000207928 0.000765683 0.000406941 0.000207928 0 0.000406941 0 0.000765683 0.000406941 0.00135656 0.000712236 0.000406941 0 0.000712236 0 0.000280289 0.000356946 0.000472255 0.000583422 0.000356946 0.000433603 0.000583422 0.000735791 0.000472255 0.000583422 0.000664222 0.000886525 0.000583422 0.000735791 0.000886525 0.00115165 0.000433603 0.000520863 0.000735791 0.000906492 0.000520863 0.000608123 0.000906492 0.00107297 0.000735791 0.000906492 0.00115165 0.00145073 0.000906492 0.00107297 0.00145073 0.00177686 0.000664222 0.000886525 0.000936024 0.00126703 0.000886525 0.00115165 0.00126703 0.00169739 0.000936024 0.00126703 0.00124312 0.0017392 0.00126703 0.00169739 0.0017392 0.00243093 0 0 0.000304062 0.000307935 0 0 0.000307935 0.000325033 0.000304062 0.000307935 0.000608123 0.000691297 0.000307935 0.000325033 0.000691297 0.000730409 0 0 0.000325033 0.000323558 0 0 0.000323558 0.000300722 0.000325033 0.000323558 0.000730409 0.000734805 0.000323558 0.000300722 0.000734805 0.000680667 0.00056002 0.000685953 0.000479955 0.000594247 0.000685953 0.000976074 0.000594247 0.000822987 0.000479955 0.000594247 0.00039989 0.000490829 0.000594247 0.000822987 0.000490829 0.000581768 0.000581768 0.000888041 0.000290884 0.000470519 0.000888041 0.00144826 0.000470519 0.000760049 0.000290884 0.000470519 0 0 0.000470519 0.000760049 0 0 0.00222528 0.00227754 0.00358863 0.00370631 0.00227754 0.00215458 0.00370631 0.00353514 0.00215458 0.00183534 0.00353514 0.00303671 0.00240114 0.0037109 0.00245201 0.00383306 0.00245201 0.00383306 0.00231295 0.00365199 0.00231295 0.00365199 0.0019649 0.00313256 0.00278618 0.00304078 0.00340621 0.00377678 0.00304078 0.00326187 0.00377678 0.00406958 0.00340621 0.00377678 0.00422989 0.00462758 0.00377678 0.00406958 0.00462758 0.00507221 0.00326187 0.00347673 0.00406958 0.00432829 0.00347673 0.00358863 0.00432829 0.00452672 0.00126079 0.00116909 0.00162558 0.00153671 0.00116909 0.0010774 0.00153671 0.00139082 0.00162558 0.00153671 0.00215458 0.00199496 0.00153671 0.00139082 0.00199496 0.00183534 0.0010774 0.00092154 0.00139082 0.00123194 0.00092154 0.000765683 0.00123194 0.00106112 0.00139082 0.00123194 0.00183534 0.00164892 0.00123194 0.00106112 0.00164892 0.00135656 0.00358863 0.00364747 0.00452672 0.00463476 0.00364747 0.00370631 0.00463476 0.0046794 0.00370631 0.00362072 0.0046794 0.00461953 0.00362072 0.00353514 0.00461953 0.00447831 0.00422989 0.00462758 0.00510018 0.00574726 0.00462758 0.00507221 0.00574726 0.00619639 0.00510018 0.00574726 0.00624158 0.00694908 0.00574726 0.00619639 0.00694908 0.00769037 0.00624158 0.00694908 0.00743523 0.00848327 0.00743523 0.00848327 0.00895357 0.010283 0.0134811 0.0145907 0.0151706 0.0163356 0.00145073 0.0016138 0.00182973 0.00200203 0.0016138 0.00177686 0.00200203 0.00221022 0.00182973 0.00200203 0.00220873 0.00251822 0.00200203 0.00221022 0.00251822 0.00278618 0.00353514 0.00328592 0.00447831 0.00422309 0.00328592 0.00303671 0.00422309 0.00389173 0.00303671 0.00271998 0.00389173 0.00344063 0.00271998 0.00227343 0.00344063 0.0028553 0.0134904 0.0151706 0.0146075 0.0163434 0.00292404 0.00197445 0.00371349 0.00256647 0.00197445 0.000987226 0.00256647 0.00131036 0.000987226 0 0.00131036 0 0.00256647 0.00131036 0.00328158 0.00167561 0.00131036 0 0.00167561 0 0.0151706 0.0163356 0.0163434 0.0177097 0.0177097 0.0186405 0.0186469 0.0196997 0.00167561 0 0.00222823 0 0.00288919 0.0034849 0.00315062 0.00386556 0.0034849 0.0042894 0.00386556 0.0046966 0.00315062 0.00386556 0.00337591 0.00416669 0.00386556 0.0046966 0.00416669 0.00514946 0.00337591 0.00416669 0.00359711 0.00443018 0.00359711 0.00443018 0.0037109 0.00463302 0.0042894 0.00514168 0.0046966 0.00579935 0.00514168 0.0062679 0.00579935 0.00698539 0.0046966 0.00579935 0.00514946 0.00625629 0.00579935 0.00698539 0.00625629 0.00773518 0.0062679 0.00744718 0.00698539 0.008506 0.00744718 0.00895357 0.008506 0.0102934 0.00220873 0.00251822 0.00273884 0.00305523 0.00251822 0.00278618 0.00305523 0.00340621 0.00273884 0.00305523 0.00326895 0.00375912 0.00305523 0.00340621 0.00375912 0.00422989 0.0037109 0.00463302 0.00377198 0.00474154 0.00377198 0.00474154 0.00383306 0.0047858 0.0151397 0.0142294 0.0170289 0.0160113 0.0142294 0.0129712 0.0160113 0.0146595 0.0129712 0.0113707 0.0146595 0.0128558 0.00157956 0.00193183 0.00175596 0.00211885 0.00193183 0.00228411 0.00211885 0.00260999 0.00175596 0.00211885 0.00193237 0.00233255 0.00211885 0.00260999 0.00233255 0.00288919 0.00383306 0.0047858 0.00374253 0.00472393 0.00374253 0.00472393 0.00365199 0.00457861 0.0146595 0.0128558 0.0159513 0.0139919 0.0173981 0.0159513 0.0183986 0.0168515 0.0159513 0.0139919 0.0168515 0.0147598 0.00944513 0.0077125 0.0113707 0.00937698 0.0077125 0.0055726 0.00937698 0.00685295 0.0113707 0.00937698 0.0128558 0.0105986 0.00937698 0.00685295 0.0105986 0.00774802 0.0055726 0.00295477 0.00685295 0.00380613 0.00685295 0.00380613 0.00774802 0.00429794 0.00380613 0 0.00429794 0 0.0128558 0.0105986 0.0139919 0.0115298 0.0105986 0.00774802 0.0115298 0.00841862 0.0139919 0.0115298 0.0147598 0.0121707 0.0115298 0.00841862 0.0121707 0.00886223 0.00774802 0.00429794 0.00841862 0.00464754 0.00429794 0 0.00464754 0 0.00841862 0.00464754 0.00886223 0.0049032 0.00464754 0 0.0049032 0 0.00228411 0.00279356 0.00260999 0.00312268 0.00279356 0.003303 0.00312268 0.0038074 0.00260999 0.00312268 0.00288919 0.0034849 0.00312268 0.0038074 0.0034849 0.0042894 0.00365199 0.00457861 0.00339227 0.00431528 0.00339227 0.00431528 0.00313256 0.00397478 0.00313256 0.00397478 0.00280389 0.00351243 0.00280389 0.00351243 0.0023424 0.00291438 0.00296444 0.00374869 0.00200159 0.00259003 0.00200159 0.00259003 0.0010008 0.00132237 0.00259003 0.00330188 0.00132237 0.001686 0.0010008 0.00132237 0 0 0.00132237 0.001686 0 0 0.001686 0.00223716 0 0 0.00243093 0.00284994 0.00286697 0.00334316 0.00284994 0.00326895 0.00334316 0.0039173 0.00286697 0.00334316 0.003303 0.00393242 0.00334316 0.0039173 0.00393242 0.00465858 0.00326895 0.00375912 0.0039173 0.00449911 0.00375912 0.00422989 0.00449911 0.00510018 0.0039173 0.00449911 0.00465858 0.00542483 0.00449911 0.00510018 0.00542483 0.00624158 0.003303 0.00393242 0.0038074 0.00452893 0.00393242 0.00465858 0.00452893 0.00543932 0.0038074 0.00452893 0.0042894 0.00514168 0.00452893 0.00543932 0.00514168 0.0062679 0.00465858 0.00542483 0.00543932 0.00639474 0.00542483 0.00624158 0.00639474 0.00743523 0.00543932 0.00639474 0.0062679 0.00744718 0.00639474 0.00743523 0.00744718 0.00895357 0.00107297 0.00115734 0.00142492 0.00149739 0.00115734 0.00124171 0.00149739 0.00158697 0.00142492 0.00149739 0.00177686 0.00193848 0.00149739 0.00158697 0.00193848 0.00206008 0.0174335 0.015288 0.0177597 0.0155684 0.00124171 0.00128585 0.00158697 0.00166419 0.00128585 0.00133 0.00166419 0.00171002 0.00158697 0.00166419 0.00206008 0.00218059 0.00166419 0.00171002 0.00218059 0.00222528 0.00133 0.00133716 0.00171002 0.00174464 0.00133716 0.00134432 0.00174464 0.00172901 0.00171002 0.00174464 0.00222528 0.00225141 0.00174464 0.00172901 0.00225141 0.00227754 0.0213989 0.0205768 0.0213718 0.0206481 0.0213718 0.0206481 0.0210675 0.0202566 0.0206481 0.0194176 0.0202566 0.0191525 0.0193792 0.0177597 0.0194176 0.0178176 0.0177597 0.0155684 0.0178176 0.0155605 0.0194176 0.0178176 0.0191525 0.0174538 0.0178176 0.0155605 0.0174538 0.0154021 0.0147598 0.0121707 0.015288 0.0125977 0.0121707 0.00886223 0.0125977 0.00916867 0.015288 0.0125977 0.0155684 0.0127926 0.0125977 0.00916867 0.0127926 0.00930684 0.00886223 0.0049032 0.00916867 0.00504566 0.00916867 0.00504566 0.00930684 0.00513394 0.0155684 0.0127926 0.0155605 0.0128617 0.0127926 0.00930684 0.0128617 0.00935242 0.0155605 0.0128617 0.0154021 0.0125412 0.00930684 0.00513394 0.00935242 0.00513384 0.0142445 0.0160156 0.0130019 0.014684 0.0130019 0.014684 0.0113927 0.0128734 0.0174174 0.0184109 0.0159663 0.0168635 0.014684 0.0159663 0.0128734 0.0140055 0.0159663 0.0168635 0.0140055 0.0147703 0.0214033 0.0213738 0.0205825 0.0206512 0.0213738 0.0210675 0.0206512 0.0202578 0.0206512 0.0202578 0.0194214 0.0191547 0.0174422 0.0177659 0.0152957 0.015574 0.0193853 0.0194214 0.0177659 0.0178217 0.0194214 0.0191547 0.0178217 0.0174562 0.0177659 0.0178217 0.015574 0.0155643 0.0178217 0.0174562 0.0155643 0.0154047 0.00947664 0.0113927 0.00773364 0.0093947 0.0113927 0.0128734 0.0093947 0.0106127 0.00773364 0.0093947 0.0055873 0.00686508 0.0093947 0.0106127 0.00686508 0.00775783 0.0128734 0.0140055 0.0106127 0.0115408 0.0140055 0.0147703 0.0115408 0.0121792 0.0106127 0.0115408 0.00775783 0.00842634 0.0115408 0.0121792 0.00842634 0.00886818 0.0055873 0.00686508 0.00296231 0.00381245 0.00686508 0.00775783 0.00381245 0.00430299 0.00381245 0.00430299 0 0 0.00775783 0.00842634 0.00430299 0.00465153 0.00842634 0.00886818 0.00465153 0.00490629 0.00430299 0.00465153 0 0 0.00465153 0.00490629 0 0 0.0147703 0.0152957 0.0121792 0.0126041 0.0152957 0.015574 0.0126041 0.0127972 0.0121792 0.0126041 0.00886818 0.00917314 0.0126041 0.0127972 0.00917314 0.00931014 0.015574 0.0155643 0.0127972 0.012865 0.0155643 0.0154047 0.012865 0.0125433 0.0127972 0.012865 0.00931014 0.00935478 0.00886818 0.00917314 0.00490629 0.00504799 0.00917314 0.00931014 0.00504799 0.00513567 0.00931014 0.00935478 0.00513567 0.00513509 0.00134432 0.00130255 0.00172901 0.00171015 0.00130255 0.00126079 0.00171015 0.00162558 0.00172901 0.00171015 0.00227754 0.00221606 0.00171015 0.00162558 0.00221606 0.00215458 0.00135656 0.0010344 0.00173028 0.00134722 0.0010344 0.000712236 0.00134722 0.000948384 0.00173028 0.00134722 0.00227343 0.00178833 0.00134722 0.000948384 0.00178833 0.00118453 0.00227343 0.00178833 0.0028553 0.00225306 0.00178833 0.00118453 0.00225306 0.00157949 0.0028553 0.00225306 0.00370298 0.00292404 0.00225306 0.00157949 0.00292404 0.00197445 0.000976074 0.00116578 0.00089953 0.00109617 0.00116578 0.00147507 0.00109617 0.00138401 0.00089953 0.00109617 0.000822987 0.00103322 0.00109617 0.00138401 0.00103322 0.00124346 0.00147507 0.00180855 0.00138401 0.00170367 0.00180855 0.00231295 0.00170367 0.00213893 0.00138401 0.00170367 0.00124346 0.00154011 0.00170367 0.00213893 0.00154011 0.0019649 0.00124346 0.00154011 0.00106575 0.00136037 0.00154011 0.0019649 0.00136037 0.00176166 0.00106575 0.00136037 0.000888041 0.00116815 0.00136037 0.00176166 0.00116815 0.00144826 0.00144826 0.00180918 0.00110416 0.00140805 0.00180918 0.0023424 0.00140805 0.00184176 0.00110416 0.00140805 0.000760049 0.000990116 0.00140805 0.00184176 0.000990116 0.00122018 0.0023424 0.00291438 0.00184176 0.0022992 0.00291438 0.00375471 0.0022992 0.00296444 0.00184176 0.0022992 0.00122018 0.00161089 0.0022992 0.00296444 0.00161089 0.00200159 0.00104501 0.00128813 0.00104835 0.00127276 0.00128813 0.00153125 0.00127276 0.00159372 0.00104835 0.00127276 0.00105168 0.0012577 0.00127276 0.00159372 0.0012577 0.00158063 0.00153125 0.00196619 0.00159372 0.00195317 0.00196619 0.00240114 0.00195317 0.00242657 0.00159372 0.00195317 0.00158063 0.00193306 0.00195317 0.00242657 0.00193306 0.00245201 0.00105168 0.0012577 0.00101388 0.0012285 0.0012577 0.00158063 0.0012285 0.00154417 0.00101388 0.0012285 0.000976074 0.00116578 0.0012285 0.00154417 0.00116578 0.00147507 0.00158063 0.00193306 0.00154417 0.00190249 0.00193306 0.00245201 0.00190249 0.00238248 0.00154417 0.00190249 0.00147507 0.00180855 0.00190249 0.00238248 0.00180855 0.00231295 0.00177686 0.00193848 0.00221022 0.00240838 0.00193848 0.00206008 0.00240838 0.00257787 0.00221022 0.00240838 0.00278618 0.00304078 0.00240838 0.00257787 0.00304078 0.00326187 0.00206008 0.00218059 0.00257787 0.00273007 0.00218059 0.00222528 0.00273007 0.00290696 0.00257787 0.00273007 0.00326187 0.00347673 0.00273007 0.00290696 0.00347673 0.00358863 0.00507221 0.00543631 0.00619639 0.00666603 0.00543631 0.00566544 0.00666603 0.00696898 0.00619639 0.00666603 0.00769037 0.00829347 0.00666603 0.00696898 0.00829347 0.00868213 0.00566544 0.0058549 0.00696898 0.00721486 0.0058549 0.00588068 0.00721486 0.00726183 0.00696898 0.00721486 0.00868213 0.00900751 0.00721486 0.00726183 0.00900751 0.00907409 0.00588068 0.00585954 0.00726183 0.00724429 0.00585954 0.00565237 0.00724429 0.00700134 0.00726183 0.00724429 0.00907409 0.00907209 0.00724429 0.00700134 0.00907209 0.00878061 0.00183534 0.00164892 0.00243603 0.00208513 0.00164892 0.00135656 0.00208513 0.00173028 0.00243603 0.00208513 0.00303671 0.00271998 0.00208513 0.00173028 0.00271998 0.00227343 0.00565237 0.00538818 0.00700134 0.00668867 0.00538818 0.0049237 0.00668867 0.0061306 0.00700134 0.00668867 0.00878061 0.00844701 0.00668867 0.0061306 0.00844701 0.00778072 0.0049237 0.00441353 0.0061306 0.0054974 0.00441353 0.00370298 0.0054974 0.00461909 0.0061306 0.0054974 0.00778072 0.00702361 0.0054974 0.00461909 0.00702361 0.00597355 0.00778072 0.00702361 0.00954771 0.00868634 0.00702361 0.00597355 0.00868634 0.00739955 0.00954771 0.00868634 0.0119463 0.0109218 0.00868634 0.00739955 0.0109218 0.00944513 0.00193237 0.00233255 0.00208421 0.00254086 0.00233255 0.00288919 0.00254086 0.00315062 0.00208421 0.00254086 0.00223604 0.00271233 0.00254086 0.00315062 0.00271233 0.00337591 0.00223604 0.00271233 0.00231859 0.00286795 0.00271233 0.00337591 0.00286795 0.00359711 0.00231859 0.00286795 0.00240114 0.00305602 0.00286795 0.00359711 0.00305602 0.0037109 0.00514946 0.00625629 0.00551978 0.00673268 0.00625629 0.00773518 0.00673268 0.00834569 0.00551978 0.00673268 0.00575175 0.00704051 0.00673268 0.00834569 0.00704051 0.00874088 0.00575175 0.00704051 0.00594621 0.0072905 0.00704051 0.00874088 0.0072905 0.00906905 0.00594621 0.0072905 0.00597278 0.00733391 0.0072905 0.00906905 0.00733391 0.00912701 0.00597278 0.00733391 0.0059444 0.00731238 0.00733391 0.00912701 0.00731238 0.00915102 0.0059444 0.00731238 0.00572733 0.00706522 0.00731238 0.00915102 0.00706522 0.00887272 0.0019649 0.00254873 0.00176166 0.00218175 0.00254873 0.00313256 0.00218175 0.00280389 0.00176166 0.00218175 0.00144826 0.00180918 0.00218175 0.00280389 0.00180918 0.0023424 0.00572733 0.00706522 0.00546136 0.00674622 0.00706522 0.00887272 0.00674622 0.00850294 0.00546136 0.00674622 0.00499373 0.00618479 0.00674622 0.00850294 0.00618479 0.00783317 0.00887272 0.0107858 0.00850294 0.0103997 0.0107858 0.0133229 0.0103997 0.012863 0.00850294 0.0103997 0.00783317 0.00961627 0.0103997 0.012863 0.00961627 0.0119748 0.00499373 0.00618479 0.00447603 0.00555087 0.00618479 0.00783317 0.00555087 0.00707294 0.00447603 0.00555087 0.00375471 0.0046631 0.00555087 0.00707294 0.0046631 0.00601111 0.00783317 0.00961627 0.00707294 0.00872962 0.00961627 0.0119748 0.00872962 0.0109561 0.00707294 0.00872962 0.00601111 0.00743462 0.00872962 0.0109561 0.00743462 0.00947664 0.0129751 0.01346 0.0154136 0.015961 0.01346 0.0135837 0.015961 0.0161237 0.0154136 0.015961 0.0171379 0.0177818 0.015961 0.0161237 0.0177818 0.0179564 0.0135837 0.0136105 0.0161237 0.0161606 0.0136105 0.0132621 0.0161606 0.0157954 0.0161237 0.0161606 0.0179564 0.0180016 0.0161606 0.0157954 0.0180016 0.017589 0.0179564 0.0180016 0.0196147 0.0196508 0.018001