# vtk DataFile Version 3.0
#This file was generated by the deal.II library on 2021/4/23 at 0:45:41
ASCII
DATASET UNSTRUCTURED_GRID

FIELD FieldData 2
CYCLE 1 1 int
66
TIME 1 1 double
0.132
POINTS 2772 double
-1 -1 0
-0.75 -1 0
-1 -0.75 0
-0.75 -0.75 0
-0.75 -1 0
-0.5 -1 0
-0.75 -0.75 0
-0.5 -0.75 0
-1 -0.75 0
-0.75 -0.75 0
-1 -0.5 0
-0.75 -0.5 0
-0.75 -0.75 0
-0.5 -0.75 0
-0.75 -0.5 0
-0.5 -0.5 0
-0.5 -1 0
-0.25 -1 0
-0.5 -0.75 0
-0.25 -0.75 0
-0.25 -1 0
0 -1 0
-0.25 -0.75 0
0 -0.75 0
-0.5 -0.75 0
-0.25 -0.75 0
-0.5 -0.5 0
-0.25 -0.5 0
-0.25 -0.75 0
0 -0.75 0
-0.25 -0.5 0
0 -0.5 0
-1 -0.5 0
-0.75 -0.5 0
-1 -0.25 0
-0.75 -0.25 0
-0.75 -0.5 0
-0.5 -0.5 0
-0.75 -0.25 0
-0.5 -0.25 0
-1 -0.25 0
-0.75 -0.25 0
-1 0 0
-0.75 0 0
-0.75 -0.25 0
-0.5 -0.25 0
-0.75 0 0
-0.5 0 0
-0.5 -0.5 0
-0.25 -0.5 0
-0.5 -0.25 0
-0.25 -0.25 0
-0.25 -0.5 0
0 -0.5 0
-0.25 -0.25 0
0 -0.25 0
-0.5 -0.25 0
-0.25 -0.25 0
-0.5 0 0
-0.25 0 0
0 -1 0
0.25 -1 0
0 -0.75 0
0.25 -0.75 0
0.25 -1 0
0.5 -1 0
0.25 -0.75 0
0.5 -0.75 0
0 -0.75 0
0.25 -0.75 0
0 -0.5 0
0.25 -0.5 0
0.5 -1 0
0.75 -1 0
0.5 -0.75 0
0.75 -0.75 0
0.75 -1 0
1 -1 0
0.75 -0.75 0
1 -0.75 0
0 -0.5 0
0.25 -0.5 0
0 -0.25 0
0.25 -0.25 0
-1 0 0
-0.75 0 0
-1 0.25 0
-0.75 0.25 0
0.5 -0.5 0
0.625 -0.5 0
0.5 -0.375 0
0.625 -0.375 0
0.625 -0.5 0
0.75 -0.5 0
0.625 -0.375 0
0.75 -0.375 0
0.5 -0.375 0
0.625 -0.375 0
0.5 -0.25 0
0.625 -0.25 0
0.625 -0.375 0
0.75 -0.375 0
0.625 -0.25 0
0.75 -0.25 0
0.75 -0.5 0
0.875 -0.5 0
0.75 -0.375 0
0.875 -0.375 0
0.875 -0.5 0
1 -0.5 0
0.875 -0.375 0
1 -0.375 0
0.75 -0.375 0
0.875 -0.375 0
0.75 -0.25 0
0.875 -0.25 0
0.875 -0.375 0
1 -0.375 0
0.875 -0.25 0
1 -0.25 0
0.5 -0.25 0
0.625 -0.25 0
0.5 -0.125 0
0.625 -0.125 0
0.625 -0.25 0
0.75 -0.25 0
0.625 -0.125 0
0.75 -0.125 0
0.5 -0.125 0
0.625 -0.125 0
0.5 0 0
0.625 0 0
0.625 -0.125 0
0.75 -0.125 0
0.625 0 0
0.75 0 0
0.75 -0.25 0
0.875 -0.25 0
0.75 -0.125 0
0.875 -0.125 0
0.875 -0.25 0
1 -0.25 0
0.875 -0.125 0
1 -0.125 0
0.75 -0.125 0
0.875 -0.125 0
0.75 0 0
0.875 0 0
0.875 -0.125 0
1 -0.125 0
0.875 0 0
1 0 0
0.5 -0.75 0
0.625 -0.75 0
0.5 -0.625 0
0.625 -0.625 0
0.625 -0.75 0
0.75 -0.75 0
0.625 -0.625 0
0.75 -0.625 0
0.5 -0.625 0
0.625 -0.625 0
0.5 -0.5 0
0.625 -0.5 0
0.625 -0.625 0
0.75 -0.625 0
0.625 -0.5 0
0.75 -0.5 0
0.75 -0.75 0
0.875 -0.75 0
0.75 -0.625 0
0.875 -0.625 0
0.875 -0.75 0
1 -0.75 0
0.875 -0.625 0
1 -0.625 0
0.75 -0.625 0
0.875 -0.625 0
0.75 -0.5 0
0.875 -0.5 0
0.875 -0.625 0
1 -0.625 0
0.875 -0.5 0
1 -0.5 0
0.25 -0.5 0
0.375 -0.5 0
0.25 -0.375 0
0.375 -0.375 0
0.375 -0.5 0
0.5 -0.5 0
0.375 -0.375 0
0.5 -0.375 0
0.25 -0.375 0
0.375 -0.375 0
0.25 -0.25 0
0.375 -0.25 0
0.375 -0.375 0
0.5 -0.375 0
0.375 -0.25 0
0.5 -0.25 0
0.25 -0.25 0
0.375 -0.25 0
0.25 -0.125 0
0.375 -0.125 0
0.375 -0.25 0
0.5 -0.25 0
0.375 -0.125 0
0.5 -0.125 0
0.25 -0.125 0
0.375 -0.125 0
0.25 0 0
0.375 0 0
0.375 -0.125 0
0.5 -0.125 0
0.375 0 0
0.5 0 0
0.25 -0.75 0
0.375 -0.75 0
0.25 -0.625 0
0.375 -0.625 0
0.375 -0.75 0
0.5 -0.75 0
0.375 -0.625 0
0.5 -0.625 0
0.25 -0.625 0
0.375 -0.625 0
0.25 -0.5 0
0.375 -0.5 0
0.375 -0.625 0
0.5 -0.625 0
0.375 -0.5 0
0.5 -0.5 0
0 -0.25 0
0.125 -0.25 0
0 -0.125 0
0.125 -0.125 0
0.125 -0.25 0
0.25 -0.25 0
0.125 -0.125 0
0.25 -0.125 0
0 -0.125 0
0.125 -0.125 0
0 0 0
0.125 0 0
0.125 -0.125 0
0.25 -0.125 0
0.125 0 0
0.25 0 0
-0.25 -0.25 0
-0.125 -0.25 0
-0.25 -0.125 0
-0.125 -0.125 0
-0.125 -0.25 0
0 -0.25 0
-0.125 -0.125 0
0 -0.125 0
-0.25 -0.125 0
-0.125 -0.125 0
-0.25 0 0
-0.125 0 0
-0.125 -0.125 0
0 -0.125 0
-0.125 0 0
0 0 0
-0.75 0 0
-0.625 0 0
-0.75 0.125 0
-0.625 0.125 0
-0.625 0 0
-0.5 0 0
-0.625 0.125 0
-0.5 0.125 0
-0.75 0.125 0
-0.625 0.125 0
-0.75 0.25 0
-0.625 0.25 0
-0.625 0.125 0
-0.5 0.125 0
-0.625 0.25 0
-0.5 0.25 0
-1 0.25 0
-0.875 0.25 0
-1 0.375 0
-0.875 0.375 0
-0.875 0.25 0
-0.75 0.25 0
-0.875 0.375 0
-0.75 0.375 0
-1 0.375 0
-0.875 0.375 0
-1 0.5 0
-0.875 0.5 0
-0.875 0.375 0
-0.75 0.375 0
-0.875 0.5 0
-0.75 0.5 0
-0.75 0.25 0
-0.625 0.25 0
-0.75 0.375 0
-0.625 0.375 0
-0.25 0 0
-0.125 0 0
-0.25 0.125 0
-0.125 0.125 0
-0.125 0 0
0 0 0
-0.125 0.125 0
0 0.125 0
-0.125 0.125 0
0 0.125 0
-0.125 0.25 0
0 0.25 0
-1 0.75 0
-0.875 0.75 0
-1 0.875 0
-0.875 0.875 0
-1 0.875 0
-0.875 0.875 0
-1 1 0
-0.875 1 0
-0.875 0.875 0
-0.75 0.875 0
-0.875 1 0
-0.75 1 0
-0.5 0 0
-0.375 0 0
-0.5 0.125 0
-0.375 0.125 0
-0.375 0 0
-0.25 0 0
-0.375 0.125 0
-0.25 0.125 0
-1 0.5 0
-0.875 0.5 0
-1 0.625 0
-0.875 0.625 0
-1 0.625 0
-0.875 0.625 0
-1 0.75 0
-0.875 0.75 0
-0.625 0.25 0
-0.5625 0.25 0
-0.625 0.3125 0
-0.5625 0.3125 0
-0.5625 0.25 0
-0.5 0.25 0
-0.5625 0.3125 0
-0.5 0.3125 0
-0.625 0.3125 0
-0.5625 0.3125 0
-0.625 0.375 0
-0.5625 0.375 0
-0.5625 0.3125 0
-0.5 0.3125 0
-0.5625 0.375 0
-0.5 0.375 0
-0.75 0.375 0
-0.6875 0.375 0
-0.75 0.4375 0
-0.6875 0.4375 0
-0.6875 0.375 0
-0.625 0.375 0
-0.6875 0.4375 0
-0.625 0.4375 0
-0.75 0.4375 0
-0.6875 0.4375 0
-0.75 0.5 0
-0.6875 0.5 0
-0.6875 0.4375 0
-0.625 0.4375 0
-0.6875 0.5 0
-0.625 0.5 0
-0.625 0.375 0
-0.5625 0.375 0
-0.625 0.4375 0
-0.5625 0.4375 0
-0.5625 0.375 0
-0.5 0.375 0
-0.5625 0.4375 0
-0.5 0.4375 0
-0.625 0.4375 0
-0.5625 0.4375 0
-0.625 0.5 0
-0.5625 0.5 0
-0.5625 0.4375 0
-0.5 0.4375 0
-0.5625 0.5 0
-0.5 0.5 0
-0.25 0.125 0
-0.1875 0.125 0
-0.25 0.1875 0
-0.1875 0.1875 0
-0.1875 0.125 0
-0.125 0.125 0
-0.1875 0.1875 0
-0.125 0.1875 0
-0.25 0.1875 0
-0.1875 0.1875 0
-0.25 0.25 0
-0.1875 0.25 0
-0.1875 0.1875 0
-0.125 0.1875 0
-0.1875 0.25 0
-0.125 0.25 0
-0.875 0.75 0
-0.8125 0.75 0
-0.875 0.8125 0
-0.8125 0.8125 0
-0.8125 0.75 0
-0.75 0.75 0
-0.8125 0.8125 0
-0.75 0.8125 0
-0.875 0.8125 0
-0.8125 0.8125 0
-0.875 0.875 0
-0.8125 0.875 0
-0.8125 0.8125 0
-0.75 0.8125 0
-0.8125 0.875 0
-0.75 0.875 0
-0.5 0.125 0
-0.4375 0.125 0
-0.5 0.1875 0
-0.4375 0.1875 0
-0.4375 0.125 0
-0.375 0.125 0
-0.4375 0.1875 0
-0.375 0.1875 0
-0.5 0.1875 0
-0.4375 0.1875 0
-0.5 0.25 0
-0.4375 0.25 0
-0.4375 0.1875 0
-0.375 0.1875 0
-0.4375 0.25 0
-0.375 0.25 0
-0.375 0.125 0
-0.3125 0.125 0
-0.375 0.1875 0
-0.3125 0.1875 0
-0.3125 0.125 0
-0.25 0.125 0
-0.3125 0.1875 0
-0.25 0.1875 0
-0.375 0.1875 0
-0.3125 0.1875 0
-0.375 0.25 0
-0.3125 0.25 0
-0.3125 0.1875 0
-0.25 0.1875 0
-0.3125 0.25 0
-0.25 0.25 0
-0.125 0.25 0
-0.0625 0.25 0
-0.125 0.3125 0
-0.0625 0.3125 0
-0.0625 0.25 0
0 0.25 0
-0.0625 0.3125 0
0 0.3125 0
-0.125 0.3125 0
-0.0625 0.3125 0
-0.125 0.375 0
-0.0625 0.375 0
-0.0625 0.3125 0
0 0.3125 0
-0.0625 0.375 0
0 0.375 0
-0.375 0.25 0
-0.3125 0.25 0
-0.375 0.3125 0
-0.3125 0.3125 0
-0.3125 0.25 0
-0.25 0.25 0
-0.3125 0.3125 0
-0.25 0.3125 0
-0.375 0.3125 0
-0.3125 0.3125 0
-0.375 0.375 0
-0.3125 0.375 0
-0.3125 0.3125 0
-0.25 0.3125 0
-0.3125 0.375 0
-0.25 0.375 0
-0.375 0.375 0
-0.3125 0.375 0
-0.375 0.4375 0
-0.3125 0.4375 0
-0.3125 0.375 0
-0.25 0.375 0
-0.3125 0.4375 0
-0.25 0.4375 0
-0.375 0.4375 0
-0.3125 0.4375 0
-0.375 0.5 0
-0.3125 0.5 0
-0.3125 0.4375 0
-0.25 0.4375 0
-0.3125 0.5 0
-0.25 0.5 0
-0.875 0.5 0
-0.8125 0.5 0
-0.875 0.5625 0
-0.8125 0.5625 0
-0.8125 0.5 0
-0.75 0.5 0
-0.8125 0.5625 0
-0.75 0.5625 0
-0.875 0.5625 0
-0.8125 0.5625 0
-0.875 0.625 0
-0.8125 0.625 0
-0.8125 0.5625 0
-0.75 0.5625 0
-0.8125 0.625 0
-0.75 0.625 0
-0.875 0.625 0
-0.8125 0.625 0
-0.875 0.6875 0
-0.8125 0.6875 0
-0.8125 0.625 0
-0.75 0.625 0
-0.8125 0.6875 0
-0.75 0.6875 0
-0.875 0.6875 0
-0.8125 0.6875 0
-0.875 0.75 0
-0.8125 0.75 0
-0.8125 0.6875 0
-0.75 0.6875 0
-0.8125 0.75 0
-0.75 0.75 0
-0.75 0.625 0
-0.6875 0.625 0
-0.75 0.6875 0
-0.6875 0.6875 0
-0.6875 0.625 0
-0.625 0.625 0
-0.6875 0.6875 0
-0.625 0.6875 0
-0.75 0.6875 0
-0.6875 0.6875 0
-0.75 0.75 0
-0.6875 0.75 0
-0.6875 0.6875 0
-0.625 0.6875 0
-0.6875 0.75 0
-0.625 0.75 0
-0.625 0.625 0
-0.5625 0.625 0
-0.625 0.6875 0
-0.5625 0.6875 0
-0.5625 0.625 0
-0.5 0.625 0
-0.5625 0.6875 0
-0.5 0.6875 0
-0.625 0.6875 0
-0.5625 0.6875 0
-0.625 0.75 0
-0.5625 0.75 0
-0.5625 0.6875 0
-0.5 0.6875 0
-0.5625 0.75 0
-0.5 0.75 0
-0.75 0.875 0
-0.6875 0.875 0
-0.75 0.9375 0
-0.6875 0.9375 0
-0.6875 0.875 0
-0.625 0.875 0
-0.6875 0.9375 0
-0.625 0.9375 0
-0.75 0.9375 0
-0.6875 0.9375 0
-0.75 1 0
-0.6875 1 0
-0.6875 0.9375 0
-0.625 0.9375 0
-0.6875 1 0
-0.625 1 0
-0.25 0.25 0
-0.1875 0.25 0
-0.25 0.3125 0
-0.1875 0.3125 0
-0.1875 0.25 0
-0.125 0.25 0
-0.1875 0.3125 0
-0.125 0.3125 0
-0.0625 0.375 0
0 0.375 0
-0.0625 0.4375 0
0 0.4375 0
-0.5 0.25 0
-0.4375 0.25 0
-0.5 0.3125 0
-0.4375 0.3125 0
-0.4375 0.25 0
-0.375 0.25 0
-0.4375 0.3125 0
-0.375 0.3125 0
-0.5 0.3125 0
-0.4375 0.3125 0
-0.5 0.375 0
-0.4375 0.375 0
-0.75 0.5 0
-0.6875 0.5 0
-0.75 0.5625 0
-0.6875 0.5625 0
-0.6875 0.5 0
-0.625 0.5 0
-0.6875 0.5625 0
-0.625 0.5625 0
-0.75 0.5625 0
-0.6875 0.5625 0
-0.75 0.625 0
-0.6875 0.625 0
-0.75 0.75 0
-0.6875 0.75 0
-0.75 0.8125 0
-0.6875 0.8125 0
-0.75 0.8125 0
-0.6875 0.8125 0
-0.75 0.875 0
-0.6875 0.875 0
-0.625 0.9375 0
-0.5625 0.9375 0
-0.625 1 0
-0.5625 1 0
-0.4375 0.5625 0
-0.375 0.5625 0
-0.4375 0.625 0
-0.375 0.625 0
-0.1875 0.5 0
-0.125 0.5 0
-0.1875 0.5625 0
-0.125 0.5625 0
-0.25 0.5625 0
-0.1875 0.5625 0
-0.25 0.625 0
-0.1875 0.625 0
-0.1875 0.5625 0
-0.125 0.5625 0
-0.1875 0.625 0
-0.125 0.625 0
-0.25 0.625 0
-0.1875 0.625 0
-0.25 0.6875 0
-0.1875 0.6875 0
-0.25 0.6875 0
-0.1875 0.6875 0
-0.25 0.75 0
-0.1875 0.75 0
-0.4375 0.75 0
-0.375 0.75 0
-0.4375 0.8125 0
-0.375 0.8125 0
-0.5 0.8125 0
-0.4375 0.8125 0
-0.5 0.875 0
-0.4375 0.875 0
-0.3125 0.75 0
-0.25 0.75 0
-0.3125 0.8125 0
-0.25 0.8125 0
-0.25 0.75 0
-0.1875 0.75 0
-0.25 0.8125 0
-0.1875 0.8125 0
-0.25 0.3125 0
-0.21875 0.3125 0
-0.25 0.34375 0
-0.21875 0.34375 0
-0.21875 0.3125 0
-0.1875 0.3125 0
-0.21875 0.34375 0
-0.1875 0.34375 0
-0.25 0.34375 0
-0.21875 0.34375 0
-0.25 0.375 0
-0.21875 0.375 0
-0.21875 0.34375 0
-0.1875 0.34375 0
-0.21875 0.375 0
-0.1875 0.375 0
-0.1875 0.3125 0
-0.15625 0.3125 0
-0.1875 0.34375 0
-0.15625 0.34375 0
-0.15625 0.3125 0
-0.125 0.3125 0
-0.15625 0.34375 0
-0.125 0.34375 0
-0.1875 0.34375 0
-0.15625 0.34375 0
-0.1875 0.375 0
-0.15625 0.375 0
-0.15625 0.34375 0
-0.125 0.34375 0
-0.15625 0.375 0
-0.125 0.375 0
[...]
POINT_DATA 2772
SCALARS U double 1
LOOKUP_TABLE default
0 0 0 1.89311e-05 0 0 1.89311e-05 8.04738e-05 0 1.89311e-05 0 2.90257e-05 1.89311e-05 8.04738e-05 2.90257e-05 0.000128536 0 0 8.04738e-05 0.000248043 0 0 0.000248043 0.000585608 8.04738e-05 0.000248043 0.000128536 0.000382241 0.000248043 0.000585608 0.000382241 0.000878262 0 2.90257e-05 0 2.30047e-05 2.90257e-05 0.000128536 2.30047e-05 9.73607e-05 0 2.30047e-05 0 3.2122e-05 2.30047e-05 9.73607e-05 3.2122e-05 0.000136186 0.000128536 0.000382241 9.73607e-05 0.000301725 0.000382241 0.000878262 0.000301725 0.000671873 9.73607e-05 0.000301725 0.000136186 0.000208861 0 0 0.000585608 0.001015 0 0 0.001015 0.00121551 0.000585608 0.001015 0.000878262 0.00151756 0 0 0.00121551 0.000869104 0 0 0.000869104 0 0.000878262 0.00151756 0.000671873 0.00113334 0 3.2122e-05 0 0.000347318 0.00181273 0.00166556 0.0017191 0.00158539 0.00166556 0.00128826 0.00158539 0.0012256 0.0017191 0.00158539 0.00134906 0.00124398 0.00158539 0.0012256 0.00124398 0.000961961 0.00128826 0.000705599 0.0012256 0.000670359 0.000705599 0 0.000670359 0 0.0012256 0.000670359 0.000961961 0.000525615 0.000670359 0 0.000525615 0 0.00134906 0.00124398 0.000742746 0.000684928 0.00124398 0.000961961 0.000684928 0.000529084 0.000742746 0.000684928 0 0 0.000684928 0.000529084 0 0 0.000961961 0.000525615 0.000529084 0.000289254 0.000525615 0 0.000289254 0 0.000529084 0.000289254 0 0 0.000289254 0 0 0 0.00121551 0.00104231 0.00161397 0.00148762 0.00104231 0.000869104 0.00148762 0.00114474 0.00161397 0.00148762 0.00181273 0.00166556 0.00148762 0.00114474 0.00166556 0.00128826 0.000869104 0.000434552 0.00114474 0.000630081 0.000434552 0 0.000630081 0 0.00114474 0.000630081 0.00128826 0.000705599 0.000630081 0 0.000705599 0 0.00151756 0.00172071 0.00132545 0.0016404 0.00172071 0.00181273 0.0016404 0.0017191 0.00132545 0.0016404 0.00113334 0.00128348 0.0016404 0.0017191 0.00128348 0.00134906 0.00113334 0.00128348 0.000620237 0.000713889 0.00128348 0.00134906 0.000713889 0.000742746 0.000620237 0.000713889 0 0 0.000713889 0.000742746 0 0 0.001015 0.00111526 0.00126628 0.0015494 0.00111526 0.00121551 0.0015494 0.00161397 0.00126628 0.0015494 0.00151756 0.00172071 0.0015494 0.00161397 0.00172071 0.00181273 0.000671873 0.000902609 0.000397708 0.000499551 0.000902609 0.00113334 0.000499551 0.000620237 0.000397708 0.000499551 0 0 0.000499551 0.000620237 0 0 0.000301725 0.000486799 0.000255293 0.000308696 0.000486799 0.000671873 0.000308696 0.000397708 0.000255293 0.000308696 0.000208861 0.000203298 0.000308696 0.000397708 0.000203298 0 3.2122e-05 8.41541e-05 0.00018972 0.000273336 8.41541e-05 0.000136186 0.000273336 0.000418814 0.00018972 0.000273336 0.000347318 0.000814965 0.000273336 0.000418814 0.000814965 0.00136136 0 0.000173659 0 0.000250775 0.000173659 0.000347318 0.000250775 0.000807885 0 0.000250775 0 0.000380633 0.000250775 0.000807885 0.000380633 0.00134924 0.000347318 0.000814965 0.000807885 0.00190718 0.000208861 0.000203298 0.000568537 0.00031678 0.000203298 0 0.00031678 0 0.00031678 0 0.00110302 0 0 0.000498133 0 0.000267696 0 0.000267696 0 0 0.000267696 0.00108827 0 0 0.000136186 0.000172523 0.000418814 0.000577976 0.000172523 0.000208861 0.000577976 0.000568537 0 0.000380633 0 0.000520559 0 0.000520559 0 0.000498133 0.000814965 0.00108816 0.00136107 0.00174429 0.00108816 0.00136136 0.00174429 0.00220148 0.00136107 0.00174429 0.00190718 0.00277848 0.00174429 0.00220148 0.00277848 0.00368934 0.000807885 0.00135753 0.00107856 0.00173908 0.00135753 0.00190718 0.00173908 0.00277613 0.00107856 0.00173908 0.00134924 0.00219486 0.00173908 0.00277613 0.00219486 0.0036859 0.00190718 0.00277848 0.00277613 0.00396576 0.00277848 0.00368934 0.00396576 0.00536652 0.00277613 0.00396576 0.0036859 0.0053659 0.00396576 0.00536652 0.0053659 0.00806068 0.000568537 0.000442658 0.000925028 0.000810663 0.000442658 0.00031678 0.000810663 0.000709899 0.000925028 0.000810663 0.00177234 0.00155274 0.000810663 0.000709899 0.00155274 0.00110302 0.000498133 0.000889921 0.000382915 0.000775717 0.000889921 0.00175104 0.000775717 0.00153204 0.000382915 0.000775717 0.000267696 0.000677981 0.000775717 0.00153204 0.000677981 0.00108827 0.000418814 0.000498395 0.000890085 0.000896286 0.000498395 0.000577976 0.000896286 0.000962714 0.000890085 0.000896286 0.00136136 0.00164908 0.000896286 0.000962714 0.00164908 0.00180518 0.000577976 0.000573256 0.000962714 0.00100205 0.000573256 0.000568537 0.00100205 0.000925028 0.000962714 0.00100205 0.00180518 0.00188948 0.00100205 0.000925028 0.00188948 0.00177234 0.00110302 0.000551509 0.00184115 0.00101551 0.000551509 0 0.00101551 0 0.00184115 0.00101551 0.00334171 0.00180372 0.00101551 0 0.00180372 0 0.00180518 0.00188948 0.00288023 0.00301616 0.00188948 0.00177234 0.00301616 0.00285466 0.00288023 0.00301616 0.00501458 0.00529602 0.00301616 0.00285466 0.00529602 0.00507532 0.00501458 0.00529602 0.00753194 0.00808866 0.00529602 0.00507532 0.00808866 0.00771333 0.00753194 0.00808866 0.0118638 0.0127014 0.00808866 0.00771333 0.0127014 0.0122581 0.000380633 0.000864937 0.000450596 0.000869853 0.000864937 0.00134924 0.000869853 0.001633 0.000450596 0.000869853 0.000520559 0.000932095 0.000869853 0.001633 0.000932095 0.00178696 0.000520559 0.000932095 0.000509346 0.000967392 0.000932095 0.00178696 0.000967392 0.00186908 0.000509346 0.000967392 0.000498133 0.000889921 0.000967392 0.00186908 0.000889921 0.00175104 0.00178696 0.00287156 0.00186908 0.00300641 0.00287156 0.00500999 0.00300641 0.00529134 0.00186908 0.00300641 0.00175104 0.00284423 0.00300641 0.00529134 0.00284423 0.00506959 0.00500999 0.00753121 0.00529134 0.00808804 0.00753121 0.0118652 0.00808804 0.0127033 0.00529134 0.00808804 0.00506959 0.00771281 0.00808804 0.0127033 0.00771281 0.0122591 0.00108827 0.00183293 0.000544133 0.00101039 0.00183293 0.00333489 0.00101039 0.00180045 0.000544133 0.00101039 0 0 0.00101039 0.00180045 0 0 0.00177234 0.00155274 0.00285466 0.0026935 0.00155274 0.00110302 0.0026935 0.00184115 0.00180372 0 0.00300333 0 0.00136136 0.00164908 0.00220148 0.00272669 0.00164908 0.00180518 0.00272669 0.00288023 0.00220148 0.00272669 0.00368934 0.0043533 0.00134924 0.00219486 0.001633 0.00271878 0.00219486 0.0036859 0.00271878 0.00434979 0.001633 0.00271878 0.00178696 0.00287156 0.00175104 0.00284423 0.00153204 0.00268027 0.00153204 0.00268027 0.00108827 0.00183293 0.00180045 0.00300056 0 0 0.0138624 0.0158595 0.0158603 0.0182747 0.0111748 0.00894728 0.0151009 0.0122615 0.0164195 0.0151009 0.0190586 0.0174858 0.0151009 0.0122615 0.0174858 0.014138 0.0190586 0.0174858 0.0201436 0.0184881 0.0201436 0.0184881 0.019945 0.0182865 0.0164407 0.0190356 0.0151686 0.017436 0.0111867 0.0151686 0.00894435 0.0123021 0.0201157 0.019945 0.018445 0.0183064 0.019945 0.0182865 0.0183064 0.0167771 0.00285466 0.00277408 0.00396499 0.00366843 0.00277408 0.0026935 0.00366843 0.00334377 0.00396499 0.00366843 0.00507532 0.00492928 0.00366843 0.00334377 0.00492928 0.00438771 0.0026935 0.00226733 0.00334377 0.00300794 0.00226733 0.00184115 0.00300794 0.00259143 0.00334377 0.00300794 0.00438771 0.00399949 0.00300794 0.00259143 0.00399949 0.00334171 0.00507532 0.00492928 0.00639432 0.00604394 0.00492928 0.00438771 0.00604394 0.00554976 0.00639432 0.00604394 0.00771333 0.00773662 0.00604394 0.00554976 0.00773662 0.00722401 0.00438771 0.00399949 0.00554976 0.00499226 0.00399949 0.00334171 0.00499226 0.00415712 0.00554976 0.00499226 0.00722401 0.00650847 0.00499226 0.00415712 0.00650847 0.00547127 0.00894728 0.00729888 0.0106044 0.0087247 0.00729888 0.00511347 0.0087247 0.00648513 0.0106044 0.0087247 0.0122615 0.00993055 0.0122615 0.00993055 0.0131997 0.0108113 0.0131997 0.0108113 0.014138 0.0114998 0.0108113 0.0080386 0.0114998 0.00852644 0.00429587 0 0.00431523 0 0.00771333 0.00773662 0.00998571 0.00953769 0.00773662 0.00722401 0.00953769 0.00881826 0.00998571 0.00953769 0.0122581 0.0119267 0.00953769 0.00881826 0.0119267 0.0111748 0.0174858 0.0158119 0.017987 0.0164012 0.0158119 0.014138 0.0164012 0.0145191 0.017987 0.0164012 0.0184881 0.0167743 0.0164012 0.0145191 0.0167743 0.014846 0.00722401 0.00650847 0.00881826 0.00804828 0.00650847 0.00547127 0.00804828 0.00681404 0.00881826 0.00804828 0.0111748 0.0100611 0.00804828 0.00681404 0.0100611 0.00894728 0.0184881 0.0167743 0.0183873 0.0168115 0.0167743 0.014846 0.0168115 0.0148625 0.0183873 0.0168115 0.0182865 0.0165983 0.0168115 0.0148625 0.0165983 0.0147085 0.014138 0.0114998 0.0145191 0.0118764 0.00461608 0 0.00475888 0 0.00334171 0.00257272 0.00415712 0.00331825 0.00257272 0.00180372 0.00331825 0.00240353 0.00415712 0.00331825 0.00547127 0.00442404 0.00331825 0.00240353 0.00442404 0.00300333 0.00547127 0.00442404 0.00681404 0.00555588 0.00442404 0.00300333 0.00555588 0.00378328 0.00681404 0.00555588 0.00894728 0.00729888 0.00555588 0.00378328 0.00729888 0.00511347 0.0151686 0.0163023 0.0137354 0.0149543 0.0163023 0.017436 0.0149543 0.0159331 0.0137354 0.0149543 0.0123021 0.0132355 0.0149543 0.0159331 0.0132355 0.0141022 0.00300333 0.00150167 0.00378328 0.00202457 0.00150167 0 0.00202457 0 0.00378328 0.00202457 0.00511347 0.00291838 0.00202457 0 0.00291838 0 0.017436 0.01807 0.0159331 0.0164959 0.01807 0.018445 0.0164959 0.0168441 0.0159331 0.0164959 0.0141022 0.0145884 0.0164959 0.0168441 0.0145884 0.014871 0.018445 0.0183757 0.0168441 0.0168343 0.0183757 0.0183064 0.0168343 0.0166126 0.0168441 0.0168343 0.014871 0.0148782 0.0168343 0.0166126 0.0148782 0.0147163 0.00894435 0.0106232 0.00729997 0.00874168 0.0106232 0.0123021 0.00874168 0.00997159 0.00729997 0.00874168 0.00511734 0.00649089 0.0123021 0.0132355 0.00997159 0.0108474 0.0108474 0.0115368 0.00805055 0.00853826 0.00429857 0.00432057 0 0 0.0141022 0.0145884 0.0115368 0.0118861 0.00462055 0.00476202 0 0 0.00272669 0.00280346 0.00354 0.00366917 0.00280346 0.00288023 0.00366917 0.0039474 0.00354 0.00366917 0.0043533 0.00486247 0.00366917 0.0039474 0.00486247 0.00501458 0.0182865 0.0165983 0.0175318 0.0160666 0.0165983 0.0147085 0.0160666 0.0142575 0.0175318 0.0160666 0.0167771 0.0152885 0.0160666 0.0142575 0.0152885 0.0135964 0.0183064 0.0175418 0.0166126 0.0160724 0.0175418 0.0167771 0.0160724 0.0152907 0.0166126 0.0160724 0.0147163 0.0142621 0.0160724 0.0152907 0.0142621 0.0135986 0.0167771 0.0152885 0.0152907 0.014064 0.0152885 0.0135964 0.014064 0.0125146 0.0152907 0.014064 0.0135986 0.0125153 0.014064 0.0125146 0.0125153 0.0111938 0.0142575 0.0116511 0.0135964 0.0111258 0.0125146 0.0103033 0.0111938 0.00924883 0.0103033 0.0076915 0.00924883 0.00695096 0.00450043 0 0.00418228 0 0.00418228 0 0.00380863 0 0.0142621 0.0135986 0.0116553 0.0111283 0.0125153 0.0111938 0.0103044 0.00924912 0.0103044 0.00924912 0.00769192 0.00695115 0.00468429 0.00448488 0 0 0.00448488 0.00418267 0 0 0.00418267 0.0038087 0 0 0.00924883 0.00695096 0.00768133 0.00585334 0.00924912 0.00768133 0.00695115 0.0058534 0.00380863 0 0.00320745 0 0.00320745 0 0.00273624 0 0.0038087 0.0032075 0 0 0.0032075 0.00273626 0 0 0.00368934 0.00402132 0.00452793 0.00498627 0.00402132 0.0043533 0.00498627 0.00547329 0.00452793 0.00498627 0.00536652 0.00626279 0.00498627 0.00547329 0.00626279 0.00699044 0.0043533 0.00486247 0.00547329 0.00590122 0.00486247 0.00501458 0.00590122 0.00627326 0.00547329 0.00590122 0.00699044 0.00747003 0.00590122 0.00627326 0.00747003 0.00753194 0.00536652 0.00626279 0.0067136 0.00757574 0.00626279 0.00699044 0.00757574 0.0083877 0.0067136 0.00757574 0.00806068 0.00943544 0.00757574 0.0083877 0.00943544 0.0103404 0.00699044 0.00747003 0.0083877 0.00912317 0.00747003 0.00753194 0.00912317 0.00969789 0.0083877 0.00912317 0.0103404 0.0113668 0.00912317 0.00969789 0.0113668 0.0118638 0.00271878 0.00353428 0.00279517 0.00366336 0.00353428 0.00434979 0.00366336 0.00485834 0.00279517 0.00366336 0.00287156 0.00394077 0.00366336 0.00485834 0.00394077 0.00500999 0.0036859 0.0045259 0.00401784 0.00498408 0.0045259 0.0053659 0.00498408 0.00626152 0.00401784 0.00498408 0.00434979 0.00547113 0.00498408 0.00626152 0.00547113 0.00698906 0.0053659 0.00671329 0.00626152 0.00757528 0.00671329 0.00806068 0.00757528 0.00943506 0.00626152 0.00757528 0.00698906 0.00838722 0.00757528 0.00943506 0.00838722 0.0103401 0.00434979 0.00547113 0.00485834 0.00589897 0.00547113 0.00698906 0.00589897 0.00746892 0.00485834 0.00589897 0.00500999 0.0062706 0.00589897 0.00746892 0.0062706 0.00753121 0.00698906 0.00838722 0.00746892 0.00912312 0.00838722 0.0103401 0.00912312 0.0113672 0.00746892 0.00912312 0.00753121 0.0096982 0.00912312 0.0113672 0.0096982 0.0118652 0.00284423 0.00395691 0.00276225 0.00366021 0.00395691 0.00506959 0.00366021 0.00492566 0.00276225 0.00366021 0.00268027 0.00333623 0.00366021 0.00492566 0.00333623 0.00438695 0.00268027 0.00333623 0.0022566 0.003 0.00333623 0.00438695 0.003 0.00399492 0.0022566 0.003 0.00183293 0.00258391 0.003 0.00399492 0.00258391 0.00333489 0.00333489 0.004155 0.00256767 0.00331508 0.004155 0.00547493 0.00331508 0.00442369 0.00256767 0.00331508 0.00180045 0.00240051 0.00331508 0.00442369 0.00240051 0.00300056 0.00547493 0.00681335 0.00442369 0.00555578 0.00681335 0.00894435 0.00555578 0.00729997 0.00442369 0.00555578 0.00300056 0.00378342 0.00555578 0.00729997 0.00378342 0.00511734 0.00300056 0.00378342 0.00150028 0.00202449 0.00378342 0.00511734 0.00202449 0.00291994 0.00150028 0.00202449 0 0 0.00202449 0.00291994 0 0 0.00506959 0.0063912 0.00492566 0.0060402 0.0063912 0.00771281 0.0060402 0.0077313 0.00492566 0.0060402 0.00438695 0.00554453 0.0060402 0.0077313 0.00554453 0.00721266 0.00771281 0.00998596 0.0077313 0.00953814 0.00998596 0.0122591 0.00953814 0.0119371 0.0077313 0.00953814 0.00721266 0.00881937 0.00953814 0.0119371 0.00881937 0.0111867 0.00438695 0.00554453 0.00399492 0.00498806 0.00554453 0.00721266 0.00498806 0.0065043 0.00399492 0.00498806 0.00333489 0.004155 0.00498806 0.0065043 0.004155 0.00547493 0.00721266 0.00881937 0.0065043 0.00804788 0.00881937 0.0111867 0.00804788 0.0100655 0.0065043 0.00804788 0.00547493 0.00681335 0.00804788 0.0100655 0.00681335 0.00894435 0.00806068 0.00943544 0.00943506 0.0112305 0.00943544 0.0103404 0.0112305 0.012375 0.00943506 0.0112305 0.0103401 0.0123753 0.0112305 0.012375 0.0123753 0.0138624 0.0103404 0.0113668 0.012375 0.01354 0.0113668 0.0118638 0.01354 0.0141148 0.012375 0.01354 0.0138624 0.014861 0.01354 0.0141148 0.014861 0.0158595 0.0103401 0.0123753 0.0113672 0.0135408 0.0123753 0.0138624 0.0135408 0.0148614 0.0113672 0.0135408 0.0118652 0.0141164 0.0135408 0.0148614 0.0141164 0.0158603 0.0118638 0.0122826 0.0141148 0.0147319 0.0122826 0.0127014 0.0147319 0.0148902 0.0141148 0.0147319 0.0158595 0.0163362 0.0147319 0.0148902 0.0163362 0.0165033 0.0127014 0.0124798 0.0148902 0.0149807 0.0124798 0.0122581 0.0149807 0.0146039 0.0148902 0.0149807 0.0165033 0.0166276 0.0149807 0.0146039 0.0166276 0.0164195 0.0158595 0.0163362 0.0170671 0.0180009 0.0163362 0.0165033 0.0180009 0.0181745 0.0170671 0.0180009 0.0182747 0.0189037 0.0180009 0.0181745 0.0189037 0.0191188 0.0165033 0.0166276 0.0181745 0.0183431 0.0166276 0.0164195 0.0183431 0.0177391 0.0181745 0.0183431 0.0191188 0.0192694 0.0183431 0.0177391 0.0192694 0.0190586 0.0118652 0.0141164 0.0122843 0.014734 0.0141164 0.0158603 0.014734 0.0163379 0.0122843 0.014734 0.0127033 0.0148923 0.014734 0.0163379 0.0148923 0.0165053 0.0158603 0.0170675 0.0163379 0.0180036 0.0170675 0.0182747 0.0180036 0.0189067 0.0163379 0.0180036 0.0165053 0.0181809 0.0180036 0.0189067 0.0181809 0.0191283 0.0127033 0.0148923 0.0124812 0.0149856 0.0148923 0.0165053 0.0149856 0.0166352 0.0124812 0.0149856 0.0122591 0.0146146 0.0149856 0.0166352 0.0146146 0.0164407 0.0165053 0.0181809 0.0166352 0.0183484 0.0181809 0.0191283 0.0183484 0.0192844 0.0166352 0.0183484 0.0164407 0.0177381 0.0183484 0.0192844 0.0177381 0.0190356 0.0182747 0.0189037 0.0189067 0.0197906 0.0189037 0.0191188 0.0197906 0.020003 0.0189067 0.0197906 0.0191283 0.0200115 0.0197906 0.020003 0.0200115 0.0202533 0.0191188 0.0192694 0.020003 0.0202052 0.0192694 0.0190586 0.0202052 0.0196011 0.020003 0.0202052 0.0202533 0.020416 0.0202052 0.0196011 0.020416 0.0201436 0.0191283 0.0200115 0.0192844 0.0202163 0.0200115 0.0202533 0.0202163 0.0204243 0.0192844 0.0202163 0.0190356 0.0197192 0.0202163 0.0204243 0.0197192 0.0201157 0.0202533 0.020416 0.0204243 0.0206478 0.020416 0.0201436 0.0206478 0.0200443 0.0204243 0.0206478 0.0201157 0.0200303 0.0206478 0.0200443 0.0200303 0.019945 0.0122581 0.0119267 0.0146039 0.0142772 0.0119267 0.0111748 0.0142772 0.0131378 0.0146039 0.0142772 0.0164195 0.0157602 0.0142772 0.0131378 0.0157602 0.0151009 0.00511347 0.00291838 0.00648513 0.00382046 0.00291838 0 0.00382046 0 0.00648513 0.00382046 0.00721863 0.00429587 0.00382046 0 0.00429587 0 0.0122591 0.0146146 0.0119371 0.0142951 0.0146146 0.0164407 0.0142951 0.0158047 0.0119371 0.0142951 0.0111867 0.0131777 0.0142951 0.0158047 0.0131777 0.0151686 0.0190356 0.0197192 0.0182358 0.0192698 0.0197192 0.0201157 0.0192698 0.0192803 0.0182358 0.0192698 0.017436 0.01807 0.0192698 0.0192803 0.01807 0.018445 0.00511734 0.00649089 0.00291994 0.0038226 0.00649089 0.00722764 0.0038226 0.00429857 0.00291994 0.0038226 0 0 0.0038226 0.00429857 0 0 0.00424752 0.00273624 0.00273626 0.00180531 0.00273624 0 0.00180531 0 0.00273626 0.00180531 0 0 0.00180531 0 0 0 0.0087247 0.00760492 0.00932762 0.00827085 0.00760492 0.00648513 0.00827085 0.00685188 0.00932762 0.00827085 0.00993055 0.00869743 0.00827085 0.00685188 0.00869743 0.00721863 0.00993055 0.00869743 0.0103709 0.0091817 0.00869743 0.00721863 0.0091817 0.00762614 0.0103709 0.0091817 0.0108113 0.00942495 0.0091817 0.00762614 0.00942495 0.0080386 0.00721863 0.00575725 0.00762614 0.00614201 0.00575725 0.00429587 0.00614201 0.00430555 0.00762614 0.00614201 0.0080386 0.0063197 0.00614201 0.00430555 0.0063197 0.00431523 0.0080386 0.0063197 0.00828252 0.00656631 0.0063197 0.00431523 0.00656631 0.0044176 0.00828252 0.00656631 0.00852644 0.00672247 0.00656631 0.0044176 0.00672247 0.00461608 0.00431523 0.00215761 0.0044176 0.00240521 0.00215761 0 0.00240521 0 0.0044176 0.00240521 0.00461608 0.00230804 0.00240521 0 0.00230804 0 0.0114998 0.0100131 0.0116881 0.010342 0.0100131 0.00852644 0.010342 0.00864763 0.0116881 0.010342 0.0118764 0.0104661 0.010342 0.00864763 0.0104661 0.00875618 0.0145191 0.0131978 0.0146826 0.0135049 0.0131978 0.0118764 0.0135049 0.0119977 0.0146826 0.0135049 0.014846 0.0136 0.0135049 0.0119977 0.0136 0.0120868 0.0118764 0.0104661 0.0119977 0.0106162 0.0104661 0.00875618 0.0106162 0.00887625 0.0119977 0.0106162 0.0120868 0.010681 0.0106162 0.00887625 0.010681 0.00893183 0.00852644 0.00672247 0.00864763 0.00686566 0.00672247 0.00461608 0.00686566 0.00468748 0.00864763 0.00686566 0.00875618 0.0069303 0.00686566 0.00468748 0.0069303 0.00475888 0.00875618 0.0069303 0.00887625 0.00701957 0.0069303 0.00475888 0.00701957 0.00475335 0.00887625 0.00701957 0.00893183 0.00705667 0.00701957 0.00475335 0.00705667 0.00479685 0.00475888 0.00237944 0.00475335 0.00258832 0.00237944 0 0.00258832 0 0.00475335 0.00258832 0.00479685 0.00261711 0.00258832 0 0.00261711 0 0.014846 0.0136 0.0148542 0.0136648 0.0136 0.0120868 0.0136648 0.012137 0.0148542 0.0136648 0.0148625 0.0136147 0.0136648 0.012137 0.0136147 0.0120987 0.0120868 0.010681 0.012137 0.0107237 0.010681 0.00893183 0.0107237 0.00896491 0.012137 0.0107237 0.0120987 0.0106905 0.0107237 0.00896491 0.0106905 0.00893778 0.0148625 0.0136147 0.0147855 0.0136044 0.0136147 0.0120987 0.0136044 0.0120846 0.0147855 0.0136044 0.0147085 0.0134781 0.0136044 0.0120846 0.0134781 0.0119803 0.0120987 0.0106905 0.0120846 0.0106795 0.0106905 0.00893778 0.0106795 0.00892949 0.0120846 0.0106795 0.0119803 0.0105906 0.0106795 0.00892949 0.0105906 0.00885852 0.00893183 0.00705667 0.00896491 0.00708461 0.00705667 0.00479685 0.00708461 0.00481823 0.00896491 0.00708461 0.00893778 0.00706485 0.00708461 0.00481823 0.00706485 0.00480569 0.00479685 0.00261711 0.00481823 0.00263023 0.00261711 0 0.00263023 0 0.00481823 0.00263023 0.00480569 0.00262444 0.00263023 0 0.00262444 0 0.00