<?xml version="1.0" ?> 
<!-- 
# vtk DataFile Version 3.0
#This file was generated by the deal.II library on 23:53:51 at 2021/5/3
-->
<VTKFile type="UnstructuredGrid" version="0.1" byte_order="LittleEndian">
<UnstructuredGrid>
<FieldData>
<DataArray type="Float32" Name="CYCLE" NumberOfTuples="1" format="ascii">68</DataArray>
<DataArray type="Float32" Name="TIME" NumberOfTuples="1" format="ascii">0.136</DataArray>
</FieldData>
<Piece NumberOfPoints="2868" NumberOfCells="717" >
  <Points>
    <DataArray type="Float32" NumberOfComponents="3" format="ascii">
-1 -1 0
-0.75 -1 0
-1 -0.75 0
-0.75 -0.75 0
-0.75 -1 0
-0.5 -1 0
-0.75 -0.75 0
-0.5 -0.75 0
-1 -0.75 0
-0.75 -0.75 0
-1 -0.5 0
-0.75 -0.5 0
-0.75 -0.75 0
-0.5 -0.75 0
-0.75 -0.5 0
-0.5 -0.5 0
-0.5 -1 0
-0.25 -1 0
-0.5 -0.75 0
-0.25 -0.75 0
-0.25 -1 0
0 -1 0
-0.25 -0.75 0
0 -0.75 0
-0.5 -0.75 0
-0.25 -0.75 0
-0.5 -0.5 0
-0.25 -0.5 0
-0.25 -0.75 0
0 -0.75 0
-0.25 -0.5 0
0 -0.5 0
-1 -0.5 0
-0.75 -0.5 0
-1 -0.25 0
-0.75 -0.25 0
-0.75 -0.5 0
-0.5 -0.5 0
-0.75 -0.25 0
-0.5 -0.25 0
-1 -0.25 0
-0.75 -0.25 0
-1 0 0
-0.75 0 0
-0.75 -0.25 0
-0.5 -0.25 0
-0.75 0 0
-0.5 0 0
-0.5 -0.5 0
-0.25 -0.5 0
-0.5 -0.25 0
-0.25 -0.25 0
-0.25 -0.5 0
0 -0.5 0
-0.25 -0.25 0
0 -0.25 0
-0.5 -0.25 0
-0.25 -0.25 0
-0.5 0 0
-0.25 0 0
0 -1 0
0.25 -1 0
0 -0.75 0
0.25 -0.75 0
0.25 -1 0
0.5 -1 0
0.25 -0.75 0
0.5 -0.75 0
0 -0.75 0
0.25 -0.75 0
0 -0.5 0
0.25 -0.5 0
0.75 -1 0
1 -1 0
0.75 -0.75 0
1 -0.75 0
0 -0.5 0
0.25 -0.5 0
0 -0.25 0
0.25 -0.25 0
0 -0.25 0
0.25 -0.25 0
0 0 0
0.25 0 0
-1 0 0
-0.75 0 0
-1 0.25 0
-0.75 0.25 0
0.5 -0.5 0
0.625 -0.5 0
0.5 -0.375 0
0.625 -0.375 0
0.625 -0.5 0
0.75 -0.5 0
0.625 -0.375 0
0.75 -0.375 0
0.5 -0.375 0
0.625 -0.375 0
0.5 -0.25 0
0.625 -0.25 0
0.625 -0.375 0
0.75 -0.375 0
0.625 -0.25 0
0.75 -0.25 0
0.75 -0.5 0
0.875 -0.5 0
0.75 -0.375 0
0.875 -0.375 0
0.875 -0.5 0
1 -0.5 0
0.875 -0.375 0
1 -0.375 0
0.75 -0.375 0
0.875 -0.375 0
0.75 -0.25 0
0.875 -0.25 0
0.875 -0.375 0
1 -0.375 0
0.875 -0.25 0
1 -0.25 0
0.5 -0.25 0
0.625 -0.25 0
0.5 -0.125 0
0.625 -0.125 0
0.625 -0.25 0
0.75 -0.25 0
0.625 -0.125 0
0.75 -0.125 0
0.5 -0.125 0
0.625 -0.125 0
0.5 0 0
0.625 0 0
0.625 -0.125 0
0.75 -0.125 0
0.625 0 0
0.75 0 0
0.75 -0.25 0
0.875 -0.25 0
0.75 -0.125 0
0.875 -0.125 0
0.875 -0.25 0
1 -0.25 0
0.875 -0.125 0
1 -0.125 0
0.75 -0.125 0
0.875 -0.125 0
0.75 0 0
0.875 0 0
0.875 -0.125 0
1 -0.125 0
0.875 0 0
1 0 0
0.75 -0.75 0
0.875 -0.75 0
0.75 -0.625 0
0.875 -0.625 0
0.875 -0.75 0
1 -0.75 0
0.875 -0.625 0
1 -0.625 0
0.75 -0.625 0
0.875 -0.625 0
0.75 -0.5 0
0.875 -0.5 0
0.875 -0.625 0
1 -0.625 0
0.875 -0.5 0
1 -0.5 0
0.25 -0.25 0
0.375 -0.25 0
0.25 -0.125 0
0.375 -0.125 0
0.375 -0.25 0
0.5 -0.25 0
0.375 -0.125 0
0.5 -0.125 0
0.25 -0.125 0
0.375 -0.125 0
0.25 0 0
0.375 0 0
0.375 -0.125 0
0.5 -0.125 0
0.375 0 0
0.5 0 0
0.5 -0.75 0
0.625 -0.75 0
0.5 -0.625 0
0.625 -0.625 0
0.625 -0.75 0
0.75 -0.75 0
0.625 -0.625 0
0.75 -0.625 0
0.5 -0.625 0
0.625 -0.625 0
0.5 -0.5 0
0.625 -0.5 0
0.625 -0.625 0
0.75 -0.625 0
0.625 -0.5 0
0.75 -0.5 0
0.25 -0.5 0
0.375 -0.5 0
0.25 -0.375 0
0.375 -0.375 0
0.375 -0.5 0
0.5 -0.5 0
0.375 -0.375 0
0.5 -0.375 0
0.25 -0.375 0
0.375 -0.375 0
0.25 -0.25 0
0.375 -0.25 0
0.375 -0.375 0
0.5 -0.375 0
0.375 -0.25 0
0.5 -0.25 0
0.25 -0.75 0
0.375 -0.75 0
0.25 -0.625 0
0.375 -0.625 0
0.375 -0.75 0
0.5 -0.75 0
0.375 -0.625 0
0.5 -0.625 0
0.25 -0.625 0
0.375 -0.625 0
0.25 -0.5 0
0.375 -0.5 0
0.375 -0.625 0
0.5 -0.625 0
0.375 -0.5 0
0.5 -0.5 0
0.5 -1 0
0.625 -1 0
0.5 -0.875 0
0.625 -0.875 0
0.625 -1 0
0.75 -1 0
0.625 -0.875 0
0.75 -0.875 0
0.5 -0.875 0
0.625 -0.875 0
0.5 -0.75 0
0.625 -0.75 0
0.625 -0.875 0
0.75 -0.875 0
0.625 -0.75 0
0.75 -0.75 0
-0.25 -0.25 0
-0.125 -0.25 0
-0.25 -0.125 0
-0.125 -0.125 0
-0.125 -0.25 0
0 -0.25 0
-0.125 -0.125 0
0 -0.125 0
-0.25 -0.125 0
-0.125 -0.125 0
-0.25 0 0
-0.125 0 0
-0.125 -0.125 0
0 -0.125 0
-0.125 0 0
0 0 0
-0.75 0 0
-0.625 0 0
-0.75 0.125 0
-0.625 0.125 0
-0.625 0 0
-0.5 0 0
-0.625 0.125 0
-0.5 0.125 0
-0.75 0.125 0
-0.625 0.125 0
-0.75 0.25 0
-0.625 0.25 0
-0.625 0.125 0
-0.5 0.125 0
-0.625 0.25 0
-0.5 0.25 0
-1 0.25 0
-0.875 0.25 0
-1 0.375 0
-0.875 0.375 0
-0.875 0.25 0
-0.75 0.25 0
-0.875 0.375 0
-0.75 0.375 0
-1 0.375 0
-0.875 0.375 0
-1 0.5 0
-0.875 0.5 0
-0.875 0.375 0
-0.75 0.375 0
-0.875 0.5 0
-0.75 0.5 0
-0.75 0.25 0
-0.625 0.25 0
-0.75 0.375 0
-0.625 0.375 0
-1 0.75 0
-0.875 0.75 0
-1 0.875 0
-0.875 0.875 0
-1 0.875 0
-0.875 0.875 0
-1 1 0
-0.875 1 0
-0.875 0.875 0
-0.75 0.875 0
-0.875 1 0
-0.75 1 0
-0.25 0 0
-0.125 0 0
-0.25 0.125 0
-0.125 0.125 0
-0.125 0 0
0 0 0
-0.125 0.125 0
0 0.125 0
-0.125 0.125 0
0 0.125 0
-0.125 0.25 0
0 0.25 0
-0.5 0 0
-0.375 0 0
-0.5 0.125 0
-0.375 0.125 0
-0.375 0 0
-0.25 0 0
-0.375 0.125 0
-0.25 0.125 0
-1 0.5 0
-0.875 0.5 0
-1 0.625 0
-0.875 0.625 0
-1 0.625 0
-0.875 0.625 0
-1 0.75 0
-0.875 0.75 0
-0.625 0.25 0
-0.5625 0.25 0
-0.625 0.3125 0
-0.5625 0.3125 0
-0.5625 0.25 0
-0.5 0.25 0
-0.5625 0.3125 0
-0.5 0.3125 0
-0.625 0.3125 0
-0.5625 0.3125 0
-0.625 0.375 0
-0.5625 0.375 0
-0.5625 0.3125 0
-0.5 0.3125 0
-0.5625 0.375 0
-0.5 0.375 0
-0.75 0.375 0
-0.6875 0.375 0
-0.75 0.4375 0
-0.6875 0.4375 0
-0.6875 0.375 0
-0.625 0.375 0
-0.6875 0.4375 0
-0.625 0.4375 0
-0.75 0.4375 0
-0.6875 0.4375 0
-0.75 0.5 0
-0.6875 0.5 0
-0.6875 0.4375 0
-0.625 0.4375 0
-0.6875 0.5 0
-0.625 0.5 0
-0.625 0.375 0
-0.5625 0.375 0
-0.625 0.4375 0
-0.5625 0.4375 0
-0.5625 0.375 0
-0.5 0.375 0
-0.5625 0.4375 0
-0.5 0.4375 0
-0.625 0.4375 0
-0.5625 0.4375 0
-0.625 0.5 0
-0.5625 0.5 0
-0.5625 0.4375 0
-0.5 0.4375 0
-0.5625 0.5 0
-0.5 0.5 0
-0.875 0.75 0
-0.8125 0.75 0
-0.875 0.8125 0
-0.8125 0.8125 0
-0.8125 0.75 0
-0.75 0.75 0
-0.8125 0.8125 0
-0.75 0.8125 0
-0.875 0.8125 0
-0.8125 0.8125 0
-0.875 0.875 0
-0.8125 0.875 0
-0.8125 0.8125 0
-0.75 0.8125 0
-0.8125 0.875 0
-0.75 0.875 0
-0.25 0.125 0
-0.1875 0.125 0
-0.25 0.1875 0
-0.1875 0.1875 0
-0.1875 0.125 0
-0.125 0.125 0
-0.1875 0.1875 0
-0.125 0.1875 0
-0.25 0.1875 0
-0.1875 0.1875 0
-0.25 0.25 0
-0.1875 0.25 0
-0.1875 0.1875 0
-0.125 0.1875 0
-0.1875 0.25 0
-0.125 0.25 0
-0.5 0.125 0
-0.4375 0.125 0
-0.5 0.1875 0
-0.4375 0.1875 0
-0.4375 0.125 0
-0.375 0.125 0
-0.4375 0.1875 0
-0.375 0.1875 0
-0.5 0.1875 0
-0.4375 0.1875 0
-0.5 0.25 0
-0.4375 0.25 0
-0.4375 0.1875 0
-0.375 0.1875 0
-0.4375 0.25 0
-0.375 0.25 0
-0.375 0.125 0
-0.3125 0.125 0
-0.375 0.1875 0
-0.3125 0.1875 0
-0.3125 0.125 0
-0.25 0.125 0
-0.3125 0.1875 0
-0.25 0.1875 0
-0.375 0.1875 0
-0.3125 0.1875 0
-0.375 0.25 0
-0.3125 0.25 0
-0.3125 0.1875 0
-0.25 0.1875 0
-0.3125 0.25 0
-0.25 0.25 0
-0.375 0.25 0
-0.3125 0.25 0
-0.375 0.3125 0
-0.3125 0.3125 0
-0.3125 0.25 0
-0.25 0.25 0
-0.3125 0.3125 0
-0.25 0.3125 0
-0.375 0.3125 0
-0.3125 0.3125 0
-0.375 0.375 0
-0.3125 0.375 0
-0.3125 0.3125 0
-0.25 0.3125 0
-0.3125 0.375 0
-0.25 0.375 0
-0.375 0.375 0
-0.3125 0.375 0
-0.375 0.4375 0
-0.3125 0.4375 0
-0.3125 0.375 0
-0.25 0.375 0
-0.3125 0.4375 0
-0.25 0.4375 0
-0.375 0.4375 0
-0.3125 0.4375 0
-0.375 0.5 0
-0.3125 0.5 0
-0.3125 0.4375 0
-0.25 0.4375 0
-0.3125 0.5 0
-0.25 0.5 0
-0.25 0.25 0
-0.1875 0.25 0
-0.25 0.3125 0
-0.1875 0.3125 0
-0.1875 0.25 0
-0.125 0.25 0
-0.1875 0.3125 0
-0.125 0.3125 0
-0.25 0.3125 0
-0.1875 0.3125 0
-0.25 0.375 0
-0.1875 0.375 0
-0.1875 0.3125 0
-0.125 0.3125 0
-0.1875 0.375 0
-0.125 0.375 0
-0.125 0.25 0
-0.0625 0.25 0
-0.125 0.3125 0
-0.0625 0.3125 0
-0.0625 0.25 0
0 0.25 0
-0.0625 0.3125 0
0 0.3125 0
-0.125 0.3125 0
-0.0625 0.3125 0
-0.125 0.375 0
-0.0625 0.375 0
-0.0625 0.3125 0
0 0.3125 0
-0.0625 0.375 0
0 0.375 0
-0.875 0.5 0
-0.8125 0.5 0
-0.875 0.5625 0
-0.8125 0.5625 0
-0.8125 0.5 0
-0.75 0.5 0
-0.8125 0.5625 0
-0.75 0.5625 0
-0.875 0.5625 0
-0.8125 0.5625 0
-0.875 0.625 0
-0.8125 0.625 0
-0.8125 0.5625 0
-0.75 0.5625 0
-0.8125 0.625 0
-0.75 0.625 0
-0.875 0.625 0
-0.8125 0.625 0
-0.875 0.6875 0
-0.8125 0.6875 0
-0.8125 0.625 0
-0.75 0.625 0
-0.8125 0.6875 0
-0.75 0.6875 0
-0.875 0.6875 0
-0.8125 0.6875 0
-0.875 0.75 0
-0.8125 0.75 0
-0.8125 0.6875 0
-0.75 0.6875 0
-0.8125 0.75 0
-0.75 0.75 0
-0.75 0.625 0
-0.6875 0.625 0
-0.75 0.6875 0
-0.6875 0.6875 0
-0.6875 0.625 0
-0.625 0.625 0
-0.6875 0.6875 0
-0.625 0.6875 0
-0.75 0.6875 0
-0.6875 0.6875 0
-0.75 0.75 0
-0.6875 0.75 0
-0.6875 0.6875 0
-0.625 0.6875 0
-0.6875 0.75 0
-0.625 0.75 0
-0.625 0.625 0
-0.5625 0.625 0
-0.625 0.6875 0
-0.5625 0.6875 0
-0.5625 0.625 0
-0.5 0.625 0
-0.5625 0.6875 0
-0.5 0.6875 0
-0.625 0.6875 0
-0.5625 0.6875 0
-0.625 0.75 0
-0.5625 0.75 0
-0.5625 0.6875 0
-0.5 0.6875 0
-0.5625 0.75 0
-0.5 0.75 0
-0.75 0.875 0
-0.6875 0.875 0
-0.75 0.9375 0
-0.6875 0.9375 0
-0.6875 0.875 0
-0.625 0.875 0
-0.6875 0.9375 0
-0.625 0.9375 0
-0.75 0.9375 0
-0.6875 0.9375 0
-0.75 1 0
-0.6875 1 0
-0.6875 0.9375 0
-0.625 0.9375 0
-0.6875 1 0
-0.625 1 0
-0.5 0.25 0
-0.4375 0.25 0
-0.5 0.3125 0
-0.4375 0.3125 0
-0.4375 0.25 0
-0.375 0.25 0
-0.4375 0.3125 0
-0.375 0.3125 0
-0.0625 0.375 0
0 0.375 0
-0.0625 0.4375 0
0 0.4375 0
-0.75 0.5 0
-0.6875 0.5 0
-0.75 0.5625 0
-0.6875 0.5625 0
-0.75 0.5625 0
-0.6875 0.5625 0
-0.75 0.625 0
-0.6875 0.625 0
-0.75 0.75 0
-0.6875 0.75 0
-0.75 0.8125 0
-0.6875 0.8125 0
-0.75 0.8125 0
-0.6875 0.8125 0
-0.75 0.875 0
-0.6875 0.875 0
-0.625 0.9375 0
-0.5625 0.9375 0
-0.625 1 0
-0.5625 1 0
-0.4375 0.5625 0
-0.375 0.5625 0
-0.4375 0.625 0
-0.375 0.625 0
-0.375 0.5625 0
-0.3125 0.5625 0
-0.375 0.625 0
-0.3125 0.625 0
-0.3125 0.5625 0
-0.25 0.5625 0
-0.3125 0.625 0
-0.25 0.625 0
-0.4375 0.625 0
-0.375 0.625 0
-0.4375 0.6875 0
-0.375 0.6875 0
-0.4375 0.6875 0
-0.375 0.6875 0
-0.4375 0.75 0
-0.375 0.75 0
-0.1875 0.5 0
-0.125 0.5 0
-0.1875 0.5625 0
-0.125 0.5625 0
-0.25 0.5625 0
-0.1875 0.5625 0
-0.25 0.625 0
-0.1875 0.625 0
-0.25 0.625 0
-0.1875 0.625 0
-0.25 0.6875 0
-0.1875 0.6875 0
-0.25 0.6875 0
-0.1875 0.6875 0
-0.25 0.75 0
-0.1875 0.75 0
-0.4375 0.75 0
-0.375 0.75 0
-0.4375 0.8125 0
-0.375 0.8125 0
-0.5 0.8125 0
-0.4375 0.8125 0
-0.5 0.875 0
-0.4375 0.875 0
-0.375 0.75 0
-0.3125 0.75 0
-0.375 0.8125 0
-0.3125 0.8125 0
-0.3125 0.75 0
-0.25 0.75 0
-0.3125 0.8125 0
-0.25 0.8125 0
[...]
  <PointData Scalars="scalars">
    <DataArray type="Float32" Name="U" format="ascii">
0 0 0 2.26109e-05 0 0 2.26109e-05 9.19716e-05 0 2.26109e-05 0 3.4706e-05 2.26109e-05 9.19716e-05 3.4706e-05 0.000140718 0 0 9.19716e-05 0.000271142 0 0 0.000271142 0.000601339 9.19716e-05 0.000271142 0.000140718 0.00041108 0.000271142 0.000601339 0.00041108 0.000894747 0 3.4706e-05 0 2.94056e-05 3.4706e-05 0.000140718 2.94056e-05 0.000111989 0 2.94056e-05 0 5.3549e-05 2.94056e-05 0.000111989 5.3549e-05 0.000203488 0.000140718 0.00041108 0.000111989 0.000320013 0.00041108 0.000894747 0.000320013 0.000687363 0.000111989 0.000320013 0.000203488 0.000283443 0 0 0.000601339 0.0010129 0 0 0.0010129 0.00118781 0.000601339 0.0010129 0.000894747 0.00150662 0 0 0.000838818 0 0.000894747 0.00150662 0.000687363 0.00111737 0.000687363 0.00111737 0 0 0 5.3549e-05 0 0.000454507 0.0017486 0.00160276 0.00165686 0.00152039 0.00160276 0.00123268 0.00152039 0.00116947 0.00165686 0.00152039 0.0012966 0.00118945 0.00152039 0.00116947 0.00118945 0.000914733 0.00123268 0.000671807 0.00116947 0.000637497 0.000671807 0 0.000637497 0 0.00116947 0.000637497 0.000914733 0.000498394 0.000637497 0 0.000498394 0 0.0012966 0.00118945 0.000711913 0.00065327 0.00118945 0.000914733 0.00065327 0.000502217 0.000711913 0.00065327 0 0 0.00065327 0.000502217 0 0 0.000914733 0.000498394 0.000502217 0.000273601 0.000498394 0 0.000273601 0 0.000502217 0.000273601 0 0 0.000273601 0 0 0 0.000838818 0.000419409 0.00110495 0.000600551 0.000419409 0 0.000600551 0 0.00110495 0.000600551 0.00123268 0.000671807 0.000600551 0 0.000671807 0 0.00111737 0.00123821 0.000558683 0.00068385 0.00123821 0.0012966 0.00068385 0.000711913 0.000558683 0.00068385 0 0 0.00068385 0.000711913 0 0 0.00118781 0.00107298 0.00156984 0.0014435 0.00107298 0.000838818 0.0014435 0.00110495 0.00156984 0.0014435 0.0017486 0.00160276 0.0014435 0.00110495 0.00160276 0.00123268 0.00150662 0.00167272 0.00131199 0.00159359 0.00167272 0.0017486 0.00159359 0.00165686 0.00131199 0.00159359 0.00111737 0.00123821 0.00159359 0.00165686 0.00123821 0.0012966 0.0010129 0.00110035 0.00125976 0.00151223 0.00110035 0.00118781 0.00151223 0.00156984 0.00125976 0.00151223 0.00150662 0.00167272 0.00151223 0.00156984 0.00167272 0.0017486 0 0 0.000593906 0.000569537 0 0 0.000569537 0.000419409 0.000593906 0.000569537 0.00118781 0.00107298 0.000569537 0.000419409 0.00107298 0.000838818 0.000320013 0.000503688 0.000301728 0.000321702 0.000503688 0.000687363 0.000321702 0.000343682 0.000301728 0.000321702 0.000283443 0.000238795 0.000321702 0.000343682 0.000238795 0 5.3549e-05 0.000128518 0.000254028 0.000376812 0.000128518 0.000203488 0.000376812 0.000571117 0.000254028 0.000376812 0.000454507 0.00100395 0.000376812 0.000571117 0.00100395 0.00165107 0 0.000227253 0 0.000339281 0.000227253 0.000454507 0.000339281 0.000992289 0 0.000339281 0 0.000510751 0.000339281 0.000992289 0.000510751 0.00162845 0.000454507 0.00100395 0.000992289 0.00222839 0 0.000633063 0 0.000360307 0 0.000360307 0 0 0.000360307 0.00127388 0 0 0.000283443 0.000238795 0.000726244 0.000423281 0.000238795 0 0.000423281 0 0.000423281 0 0.00129133 0 0.000203488 0.000243465 0.000571117 0.000751103 0.000243465 0.000283443 0.000751103 0.000726244 0 0.000510751 0 0.000666473 0 0.000666473 0 0.000633063 0.00100395 0.00132751 0.00161617 0.00209015 0.00132751 0.00165107 0.00209015 0.00263244 0.00161617 0.00209015 0.00222839 0.00314607 0.00209015 0.00263244 0.00314607 0.00409065 0.000992289 0.00161034 0.00131037 0.00207988 0.00161034 0.00222839 0.00207988 0.00314103 0.00131037 0.00207988 0.00162845 0.00261636 0.00207988 0.00314103 0.00261636 0.00408005 0.00222839 0.00314607 0.00314103 0.00449665 0.00314607 0.00409065 0.00449665 0.00602061 0.00314103 0.00449665 0.00408005 0.00601525 0.00449665 0.00602061 0.00601525 0.00874656 0.000633063 0.00115269 0.000496685 0.00099362 0.00115269 0.00205803 0.00099362 0.00176303 0.000496685 0.00099362 0.000360307 0.000817093 0.00099362 0.00176303 0.000817093 0.00127388 0.000726244 0.000574762 0.00120411 0.00103463 0.000574762 0.000423281 0.00103463 0.000857303 0.00120411 0.00103463 0.0020913 0.00181006 0.00103463 0.000857303 0.00181006 0.00129133 0.000571117 0.00066111 0.00111109 0.00116975 0.00066111 0.000751103 0.00116975 0.0012578 0.00111109 0.00116975 0.00165107 0.00195973 0.00116975 0.0012578 0.00195973 0.00215338 0.000751103 0.000738673 0.0012578 0.00128289 0.000738673 0.000726244 0.00128289 0.00120411 0.0012578 0.00128289 0.00215338 0.00220963 0.00128289 0.00120411 0.00220963 0.0020913 0.00215338 0.00220963 0.00345202 0.00357899 0.00220963 0.0020913 0.00357899 0.00340916 0.00345202 0.00357899 0.00552612 0.00576422 0.00357899 0.00340916 0.00576422 0.0055493 0.00552612 0.00576422 0.00842749 0.00890738 0.00576422 0.0055493 0.00890738 0.00854533 0.00842749 0.00890738 0.012811 0.0135168 0.00890738 0.00854533 0.0135168 0.0131217 0.0020913 0.00181006 0.00340916 0.00296376 0.00181006 0.00129133 0.00296376 0.00218703 0.00340916 0.00296376 0.0055493 0.00492187 0.00296376 0.00218703 0.00492187 0.00366776 0.00129133 0.000645663 0.00218703 0.00117234 0.000645663 0 0.00117234 0 0.00218703 0.00117234 0.00366776 0.00195948 0.00117234 0 0.00195948 0 0.000510751 0.0010696 0.000588612 0.00112432 0.0010696 0.00162845 0.00112432 0.00192855 0.000588612 0.00112432 0.000666473 0.00120607 0.00112432 0.00192855 0.00120607 0.00211743 0.000666473 0.00120607 0.000649768 0.00122785 0.00120607 0.00211743 0.00122785 0.00217282 0.000649768 0.00122785 0.000633063 0.00115269 0.00122785 0.00217282 0.00115269 0.00205803 0.00211743 0.00342566 0.00217282 0.00354908 0.00342566 0.00550682 0.00354908 0.00573739 0.00217282 0.00354908 0.00205803 0.00337649 0.00354908 0.00573739 0.00337649 0.00551327 0.00550682 0.00841483 0.00573739 0.00889034 0.00841483 0.012804 0.00889034 0.0135106 0.00573739 0.00889034 0.00551327 0.00854088 0.00889034 0.0135106 0.00854088 0.0131141 0.00127388 0.00215695 0.000636939 0.00116223 0.00215695 0.00364963 0.00116223 0.00194758 0.000636939 0.00116223 0 0 0.00116223 0.00194758 0 0 0.00165107 0.00195973 0.00263244 0.00320305 0.00195973 0.00215338 0.00320305 0.00345202 0.00195948 0 0.00324307 0 0.00162845 0.00261636 0.00192855 0.00318084 0.00192855 0.00318084 0.00211743 0.00342566 0.00205803 0.00337649 0.00176303 0.00302107 0.00176303 0.00302107 0.00127388 0.00215695 0.00194758 0.00324063 0 0 0.0149247 0.0170451 0.0170416 0.0195481 0.0170451 0.0178642 0.0195481 0.0205073 0.0178642 0.0175269 0.0205073 0.0201887 0.0170416 0.0195481 0.0178606 0.020506 0.0178606 0.020506 0.0175253 0.0201871 0.0119027 0.00945732 0.0159842 0.0128803 0.0175269 0.0159842 0.0201887 0.0183663 0.0201887 0.0183663 0.0212139 0.0193685 0.0212139 0.0193685 0.0209239 0.019079 0.0175253 0.0201871 0.0159832 0.0183655 0.0119014 0.0159832 0.00945645 0.0128795 0.0201871 0.0212137 0.0183655 0.019368 0.0212137 0.0209239 0.019368 0.0190787 0.0209239 0.019079 0.0190787 0.017431 0.00263244 0.00291774 0.00336154 0.003642 0.00291774 0.00320305 0.003642 0.00393899 0.00336154 0.003642 0.00409065 0.00459294 0.003642 0.00393899 0.00459294 0.00493714 0.00320305 0.00332754 0.00393899 0.00420594 0.00332754 0.00345202 0.00420594 0.00448907 0.00393899 0.00420594 0.00493714 0.0053756 0.00420594 0.00448907 0.0053756 0.00552612 0.00409065 0.00459294 0.00505563 0.0055674 0.00459294 0.00493714 0.0055674 0.00609331 0.00505563 0.0055674 0.00602061 0.00689635 0.0055674 0.00609331 0.00689635 0.00762982 0.00493714 0.0053756 0.00609331 0.00654867 0.0053756 0.00552612 0.00654867 0.00697681 0.00609331 0.00654867 0.00762982 0.00820597 0.00654867 0.00697681 0.00820597 0.00842749 0.00602061 0.00689635 0.00738359 0.00831736 0.00689635 0.00762982 0.00831736 0.00920325 0.00738359 0.00831736 0.00874656 0.0101964 0.00831736 0.00920325 0.0101964 0.011242 0.00762982 0.00820597 0.00920325 0.00998834 0.00820597 0.00842749 0.00998834 0.0106192 0.00920325 0.00998834 0.011242 0.0122627 0.00998834 0.0106192 0.0122627 0.012811 0.00366776 0.00281362 0.00454337 0.00362952 0.00281362 0.00195948 0.00362952 0.00260128 0.00454337 0.00362952 0.00590579 0.00474699 0.00362952 0.00260128 0.00474699 0.00324307 0.0159842 0.0144322 0.0171753 0.0157401 0.0144322 0.0128803 0.0157401 0.0138732 0.0171753 0.0157401 0.0183663 0.0166786 0.0157401 0.0138732 0.0166786 0.0147284 0.00945732 0.00770401 0.0111688 0.00921864 0.00770401 0.00544351 0.00921864 0.00678995 0.0111688 0.00921864 0.0128803 0.0104862 0.0128803 0.0104862 0.0138732 0.0113578 0.004368 0 0.00451029 0 0.00590579 0.00474699 0.00733811 0.00596117 0.00474699 0.00324307 0.00596117 0.00412139 0.00733811 0.00596117 0.00945732 0.00770401 0.00596117 0.00412139 0.00770401 0.00544351 0.0183663 0.0166786 0.0188674 0.0172631 0.0166786 0.0147284 0.0172631 0.0152163 0.0188674 0.0172631 0.0193685 0.0175782 0.0172631 0.0152163 0.0175782 0.0154852 0.00324307 0.00162154 0.00412139 0.00218357 0.00162154 0 0.00218357 0 0.00412139 0.00218357 0.00544351 0.003021 0.00218357 0 0.003021 0 0.0193685 0.0175782 0.0192237 0.0175964 0.0175782 0.0154852 0.0175964 0.0154858 0.0192237 0.0175964 0.019079 0.0173354 0.0175964 0.0154858 0.0173354 0.0152961 0.0147284 0.0120241 0.0152163 0.012413 0.00261636 0.0033482 0.0028986 0.00362576 0.0033482 0.00408005 0.00362576 0.00457943 0.0028986 0.00362576 0.00318084 0.00391989 0.00362576 0.00457943 0.00391989 0.00492099 0.00318084 0.00391989 0.00330325 0.00418513 0.00391989 0.00492099 0.00418513 0.0053578 0.00330325 0.00418513 0.00342566 0.00446624 0.00418513 0.0053578 0.00446624 0.00550682 0.0159832 0.0171743 0.0144313 0.0157393 0.0171743 0.0183655 0.0157393 0.016678 0.0144313 0.0157393 0.0128795 0.0138724 0.0157393 0.016678 0.0138724 0.0147279 0.00408005 0.00504765 0.00457943 0.00555661 0.00504765 0.00601525 0.00555661 0.00688841 0.00457943 0.00555661 0.00492099 0.00607989 0.00555661 0.00688841 0.00607989 0.00761925 0.00601525 0.00738091 0.00688841 0.00831219 0.00738091 0.00874656 0.00831219 0.010194 0.00688841 0.00831219 0.00761925 0.00919536 0.00831219 0.010194 0.00919536 0.0112368 0.0183655 0.0188667 0.016678 0.0172624 0.0188667 0.019368 0.0172624 0.0175777 0.016678 0.0172624 0.0147279 0.0152157 0.0172624 0.0175777 0.0152157 0.0154848 0.019368 0.0192234 0.0175777 0.0175959 0.0192234 0.0190787 0.0175959 0.0173352 0.0175777 0.0175959 0.0154848 0.0154853 0.0175959 0.0173352 0.0154853 0.0152958 0.00945645 0.011168 0.00770308 0.00921794 0.011168 0.0128795 0.00921794 0.0104857 0.00770308 0.00921794 0.00544209 0.00678944 0.0128795 0.0138724 0.0104857 0.0113573 0.00436767 0.00451009 0 0 0.0147279 0.0152157 0.0120236 0.0124125 0.00492099 0.00607989 0.0053578 0.00653385 0.00607989 0.00761925 0.00653385 0.00819372 0.0053578 0.00653385 0.00550682 0.00696083 0.00653385 0.00819372 0.00696083 0.00841483 0.019079 0.0173354 0.018255 0.0167555 0.0173354 0.0152961 0.0167555 0.014784 0.018255 0.0167555 0.017431 0.0158941 0.0167555 0.014784 0.0158941 0.0140543 0.0190787 0.0182549 0.0173352 0.0167553 0.0182549 0.017431 0.0167553 0.015894 0.0173352 0.0167553 0.0152958 0.0147838 0.0167553 0.015894 0.0147838 0.0140541 0.017431 0.0158941 0.015894 0.0146013 0.0158941 0.0140543 0.0146013 0.012948 0.015894 0.0146013 0.0140541 0.0129479 0.0146013 0.012948 0.0129479 0.0115354 0.012948 0.0106664 0.0115354 0.00954917 0.0106664 0.00790763 0.00954917 0.00712883 0.00433109 0 0.00392716 0 0.0129479 0.0115354 0.0106664 0.00954914 0.0106664 0.00954914 0.00790756 0.0071288 0.00433105 0.00392715 0 0 0.00954917 0.00712883 0.00795367 0.00602015 0.00954914 0.00795367 0.0071288 0.00602013 0.00331384 0 0.00271631 0 0.00331383 0.00271631 0 0 0.00761925 0.00919536 0.00819372 0.00997845 0.00919536 0.0112368 0.00997845 0.0122559 0.00819372 0.00997845 0.00841483 0.0106094 0.00997845 0.0122559 0.0106094 0.012804 0.0055493 0.00523559 0.00704732 0.00659323 0.00523559 0.00492187 0.00659323 0.00605024 0.00704732 0.00659323 0.00854533 0.00836379 0.00659323 0.00605024 0.00836379 0.00772124 0.00492187 0.00429481 0.00605024 0.00542018 0.00429481 0.00366776 0.00542018 0.00454337 0.00605024 0.00542018 0.00772124 0.00694612 0.00542018 0.00454337 0.00694612 0.00590579 0.00854533 0.00836379 0.0108335 0.0102884 0.00836379 0.00772124 0.0102884 0.00949756 0.0108335 0.0102884 0.0131217 0.0126891 0.0102884 0.00949756 0.0126891 0.0119027 0.00772124 0.00694612 0.00949756 0.00862795 0.00694612 0.00590579 0.00862795 0.00733811 0.00949756 0.00862795 0.0119027 0.01068 0.00862795 0.00733811 0.01068 0.00945732 0.00337649 0.00444488 0.00319878 0.00411578 0.00444488 0.00551327 0.00411578 0.00535056 0.00319878 0.00411578 0.00302107 0.00376122 0.00411578 0.00535056 0.00376122 0.00483011 0.00302107 0.00376122 0.00258901 0.00336562 0.00376122 0.00483011 0.00336562 0.00436299 0.00258901 0.00336562 0.00215695 0.00290329 0.00336562 0.00436299 0.00290329 0.00364963 0.00364963 0.00455059 0.00279861 0.00360981 0.00455059 0.00589119 0.00360981 0.00473695 0.00279861 0.00360981 0.00194758 0.00259411 0.00360981 0.00473695 0.00259411 0.00324063 0.00589119 0.00733571 0.00473695 0.0059606 0.00733571 0.00945645 0.0059606 0.00770308 0.00473695 0.0059606 0.00324063 0.00412233 0.0059606 0.00770308 0.00412233 0.00544209 0.00324063 0.00412233 0.00162031 0.00218235 0.00412233 0.00544209 0.00218235 0.0030199 0.00162031 0.00218235 0 0 0.00218235 0.0030199 0 0 0.00551327 0.00702708 0.00535056 0.00659262 0.00702708 0.00854088 0.00659262 0.00836629 0.00535056 0.00659262 0.00483011 0.00605133 0.00659262 0.00836629 0.00605133 0.0077333 0.00854088 0.0108275 0.00836629 0.0102814 0.0108275 0.0131141 0.0102814 0.012685 0.00836629 0.0102814 0.0077333 0.00948985 0.0102814 0.012685 0.00948985 0.0119014 0.00483011 0.00605133 0.00436299 0.00542458 0.00605133 0.0077333 0.00542458 0.00695114 0.00436299 0.00542458 0.00364963 0.00455059 0.00542458 0.00695114 0.00455059 0.00589119 0.0077333 0.00948985 0.00695114 0.00862398 0.00948985 0.0119014 0.00862398 0.0106789 0.00695114 0.00862398 0.00589119 0.00733571 0.00862398 0.0106789 0.00733571 0.00945645 0.00874656 0.0101964 0.010194 0.0120317 0.0101964 0.011242 0.0120317 0.013309 0.010194 0.0120317 0.0112368 0.0133066 0.0120317 0.013309 0.0133066 0.0149247 0.011242 0.0122627 0.013309 0.0144885 0.0122627 0.012811 0.0144885 0.0151099 0.013309 0.0144885 0.0149247 0.0159849 0.0144885 0.0151099 0.0159849 0.0170451 0.0112368 0.0133066 0.0122559 0.014484 0.0133066 0.0149247 0.014484 0.0159832 0.0122559 0.014484 0.012804 0.0151055 0.014484 0.0159832 0.0151055 0.0170416 0.012811 0.0131639 0.0151099 0.0157042 0.0131639 0.0135168 0.0157042 0.0158365 0.0151099 0.0157042 0.0170451 0.0174546 0.0157042 0.0158365 0.0174546 0.0178642 0.0135168 0.0133192 0.0158365 0.0159099 0.0133192 0.0131217 0.0159099 0.0155121 0.0158365 0.0159099 0.0178642 0.0176955 0.0159099 0.0155121 0.0176955 0.0175269 0.012804 0.0151055 0.0131573 0.0156987 0.0151055 0.0170416 0.0156987 0.0174511 0.0131573 0.0156987 0.0135106 0.0158325 0.0156987 0.0174511 0.0158325 0.0178606 0.0135106 0.0158325 0.0133124 0.0159079 0.0158325 0.0178606 0.0159079 0.017693 0.0133124 0.0159079 0.0131141 0.0155102 0.0159079 0.017693 0.0155102 0.0175253 0.0195481 0.0200277 0.0200271 0.0209203 0.0200277 0.0205073 0.0209203 0.0211325 0.0200271 0.0209203 0.020506 0.0211321 0.0209203 0.0211325 0.0211321 0.0214162 0.0205073 0.020348 0.0211325 0.0212838 0.020348 0.0201887 0.0212838 0.0207013 0.0211325 0.0212838 0.0214162 0.0215081 0.0212838 0.0207013 0.0215081 0.0212139 0.020506 0.0211321 0.0203466 0.0212831 0.0211321 0.0214162 0.0212831 0.0215078 0.0203466 0.0212831 0.0201871 0.0207004 0.0212831 0.0215078 0.0207004 0.0212137 0.0214162 0.0215081 0.0215078 0.0216724 0.0215081 0.0212139 0.0216724 0.0210689 0.0215078 0.0216724 0.0212137 0.0210688 0.0216724 0.0210689 0.0210688 0.0209239 0.0131217 0.0126891 0.0155121 0.0150799 0.0126891 0.0119027 0.0150799 0.0139434 0.0155121 0.0150799 0.0175269 0.0167555 0.0150799 0.0139434 0.0167555 0.0159842 0.00544351 0.003021 0.00678995 0.00385069 0.003021 0 0.00385069 0 0.00678995 0.00385069 0.00758205 0.004368 0.00385069 0 0.004368 0 0.0131141 0.0155102 0.012685 0.0150793 0.0155102 0.0175253 0.0150793 0.0167542 0.012685 0.0150793 0.0119014 0.0139423 0.0150793 0.0167542 0.0139423 0.0159832 0.00544209 0.00678944 0.0030199 0.0038504 0.00678944 0.0075814 0.0038504 0.00436767 0.0030199 0.0038504 0 0 0.0038504 0.00436767 0 0 0.00439135 0.00271631 0.00271631 0.00169316 0.00271631 0 0.00169316 0 0.00271631 0.00169316 0 0 0.00169316 0 0 0 0.00921864 0.00800429 0.00985242 0.00870613 0.00800429 0.00678995 0.00870613 0.007186 0.00985242 0.00870613 0.0104862 0.00915788 0.00870613 0.007186 0.00915788 0.00758205 0.0104862 0.00915788 0.010922 0.00964741 0.00915788 0.00758205 0.00964741 0.00799651 0.010922 0.00964741 0.0113578 0.00998142 0.00964741 0.00799651 0.00998142 0.00834846 0.0138732 0.0126155 0.0143008 0.0131475 0.0126155 0.0113578 0.0131475 0.0116879 0.0143008 0.0131475 0.0147284 0.0133762 0.0131475 0.0116879 0.0133762 0.0120241 0.0113578 0.00998142 0.0116879 0.0103237 0.00998142 0.00834846 0.0103237 0.00861776 0.0116879 0.0103237 0.0120241 0.0105577 0.0103237 0.00861776 0.0105577 0.00881032 0.00758205 0.00597502 0.00799651 0.0063773 0.00597502 0.004368 0.0063773 0.00443914 0.00799651 0.0063773 0.00834846 0.00657562 0.0063773 0.00443914 0.00657562 0.00451029 0.00834846 0.00657562 0.00861776 0.00680856 0.00657562 0.00451029 0.00680856 0.00462915 0.00861776 0.00680856 0.00881032 0.00695973 0.00680856 0.00462915 0.00695973 0.00475461 0.00451029 0.00225515 0.00462915 0.00251438 0.00225515 0 0.00251438 0 0.00462915 0.00251438 0.00475461 0.00258205 0.00251438 0 0.00258205 0 0.0120241 0.0105577 0.0122185 0.0107729 0.0105577 0.00881032 0.0107729 0.00898222 0.0122185 0.0107729 0.012413 0.0108944 0.0107729 0.00898222 0.0108944 0.00908637 0.0152163 0.0138147 0.0153508 0.0140947 0.0138147 0.012413 0.0140947 0.0125249 0.0153508 0.0140947 0.0154852 0.0141726 0.0140947 0.0125249 0.0141726 0.0126034 0.012413 0.0108944 0.0125249 0.0110366 0.0108944 0.00908637 0.0110366 0.00920186 0.0125249 0.0110366 0.0126034 0.0110954 0.0110366 0.00920186 0.0110954 0.00925391 0.00881032 0.00695973 0.00898222 0.00709406 0.00695973 0.00475461 0.00709406 0.00484444 0.00898222 0.00709406 0.00908637 0.00717396 0.00709406 0.00484444 0.00717396 0.00489671 0.00475461 0.00258205 0.00484444 0.00262967 0.00258205 0 0.00262967 0 0.00484444 0.00262967 0.00489671 0.00265701 0.00262967 0 0.00265701 0 0.00908637 0.00717396 0.00920186 0.00726371 0.00717396 0.00489671 0.00726371 0.00495733 0.00920186 0.00726371 0.00925391 0.00730394 0.00726371 0.00495733 0.00730394 0.00498407 0.00489671 0.00265701 0.00495733 0.00268806 0.00265701 0 0.00268806 0 0.00495733 0.00268806 0.00498407 0.00270187 0.00268806 0 0.00270187 0 0.0154852 0.0141726 0.0154855 0.0142279 0.0141726 0.0126034 0.0142279 0.0126472 0.0154855 0.0142279 0.0154858 0.0141731 0.0142279 0.0126472 0.0141731 0.012605 0.0126034 0.0110954 0.0126472 0.0111341 0.0110954 0.00925391 0.0111341 0.00928479 0.0126472 0.0111341 0.012605 0.011098 0.0111341 0.00928479 0.011098 0.00925538 0.0154858 0.0141731 0.0153909 0.0141439 0.0141731 0.012605 0.0141439 0.0125741 0.0153909 0.0141439 0.0152961 0.0139997 0.0141439 0.0125741 0.0139997 0.0124545 0.012605 0.011098 0.0125741 0.0110726 0.011098 0.00925538 0.0110726 0.00923528 0.0125741 0.0110726 0.0124545 0.0109705 0.0110726 0.00923528 0.0109705 0.00915284 0.00925391 0.00730394 0.00928479 0.00732832 0.00730394 0.00498407 0.00732832 0.00500061 0.00928479 0.00732832 0.00925538 0.00730631 0.00732832 0.00500061 0.00730631 0.00498577 0.00498407 0.00270187 0.00500061 0.00271037 0.00270187 0 0.00271037 0 0.00500061 0.00271037 0.00498577 0.00270302 0.00271037 0 0.00270302 0 0.00925538 0.00730631 0.00923528 0.00729101 0.00730631 0.00498577 0.00729101 0.00497561 0.00923528 0.00729101 0.00915284 0.00722823 0.00729101 0.00497561 0.00722823 0.00493342 0.00498577 0.00270302 0.00497561 0.0026979 0.00270302 0 0.0026979 0 0.00497561 0.0026979 0.00493342 0.00267662 0.0026979 0 0.00267662 0 0.00921794 0.00985181 0.00800369 0.00870548 0.00985181 0.0104857 0.00870548 0.00915724 0.00800369