<?xml version="1.0" ?> 
<!-- 
# vtk DataFile Version 3.0
#This file was generated by the deal.II library on 21:45:02 at 2021/4/29
-->
<VTKFile type="UnstructuredGrid" version="0.1" byte_order="LittleEndian">
<UnstructuredGrid>
<Piece NumberOfPoints="65536" NumberOfCells="16384" >
  <Points>
    <DataArray type="Float32" NumberOfComponents="3" format="ascii">
-1 -1 0
-0.984375 -1 0
-1 -0.984375 0
-0.984375 -0.984375 0
-0.984375 -1 0
-0.96875 -1 0
-0.984375 -0.984375 0
-0.96875 -0.984375 0
-1 -0.984375 0
-0.984375 -0.984375 0
-1 -0.96875 0
-0.984375 -0.96875 0
-0.984375 -0.984375 0
-0.96875 -0.984375 0
-0.984375 -0.96875 0
-0.96875 -0.96875 0
-0.96875 -1 0
-0.953125 -1 0
-0.96875 -0.984375 0
-0.953125 -0.984375 0
-0.953125 -1 0
-0.9375 -1 0
-0.953125 -0.984375 0
-0.9375 -0.984375 0
-0.96875 -0.984375 0
-0.953125 -0.984375 0
-0.96875 -0.96875 0
-0.953125 -0.96875 0
-0.953125 -0.984375 0
-0.9375 -0.984375 0
-0.953125 -0.96875 0
-0.9375 -0.96875 0
-1 -0.96875 0
-0.984375 -0.96875 0
-1 -0.953125 0
-0.984375 -0.953125 0
-0.984375 -0.96875 0
-0.96875 -0.96875 0
-0.984375 -0.953125 0
-0.96875 -0.953125 0
-1 -0.953125 0
-0.984375 -0.953125 0
-1 -0.9375 0
-0.984375 -0.9375 0
-0.984375 -0.953125 0
-0.96875 -0.953125 0
-0.984375 -0.9375 0
-0.96875 -0.9375 0
-0.96875 -0.96875 0
-0.953125 -0.96875 0
-0.96875 -0.953125 0
-0.953125 -0.953125 0
-0.953125 -0.96875 0
-0.9375 -0.96875 0
-0.953125 -0.953125 0
-0.9375 -0.953125 0
-0.96875 -0.953125 0
-0.953125 -0.953125 0
-0.96875 -0.9375 0
-0.953125 -0.9375 0
-0.953125 -0.953125 0
-0.9375 -0.953125 0
-0.953125 -0.9375 0
-0.9375 -0.9375 0
-0.9375 -1 0
-0.921875 -1 0
-0.9375 -0.984375 0
-0.921875 -0.984375 0
-0.921875 -1 0
-0.90625 -1 0
-0.921875 -0.984375 0
-0.90625 -0.984375 0
-0.9375 -0.984375 0
-0.921875 -0.984375 0
-0.9375 -0.96875 0
-0.921875 -0.96875 0
-0.921875 -0.984375 0
-0.90625 -0.984375 0
-0.921875 -0.96875 0
-0.90625 -0.96875 0
-0.90625 -1 0
-0.890625 -1 0
-0.90625 -0.984375 0
-0.890625 -0.984375 0
-0.890625 -1 0
-0.875 -1 0
-0.890625 -0.984375 0
-0.875 -0.984375 0
-0.90625 -0.984375 0
-0.890625 -0.984375 0
-0.90625 -0.96875 0
-0.890625 -0.96875 0
-0.890625 -0.984375 0
-0.875 -0.984375 0
-0.890625 -0.96875 0
-0.875 -0.96875 0
-0.9375 -0.96875 0
-0.921875 -0.96875 0
-0.9375 -0.953125 0
-0.921875 -0.953125 0
-0.921875 -0.96875 0
-0.90625 -0.96875 0
-0.921875 -0.953125 0
-0.90625 -0.953125 0
-0.9375 -0.953125 0
-0.921875 -0.953125 0
-0.9375 -0.9375 0
-0.921875 -0.9375 0
-0.921875 -0.953125 0
-0.90625 -0.953125 0
-0.921875 -0.9375 0
-0.90625 -0.9375 0
-0.90625 -0.96875 0
-0.890625 -0.96875 0
-0.90625 -0.953125 0
-0.890625 -0.953125 0
-0.890625 -0.96875 0
-0.875 -0.96875 0
-0.890625 -0.953125 0
-0.875 -0.953125 0
-0.90625 -0.953125 0
-0.890625 -0.953125 0
-0.90625 -0.9375 0
-0.890625 -0.9375 0
-0.890625 -0.953125 0
-0.875 -0.953125 0
-0.890625 -0.9375 0
-0.875 -0.9375 0
-1 -0.9375 0
-0.984375 -0.9375 0
-1 -0.921875 0
-0.984375 -0.921875 0
-0.984375 -0.9375 0
-0.96875 -0.9375 0
-0.984375 -0.921875 0
-0.96875 -0.921875 0
-1 -0.921875 0
-0.984375 -0.921875 0
-1 -0.90625 0
-0.984375 -0.90625 0
-0.984375 -0.921875 0
-0.96875 -0.921875 0
-0.984375 -0.90625 0
-0.96875 -0.90625 0
-0.96875 -0.9375 0
-0.953125 -0.9375 0
-0.96875 -0.921875 0
-0.953125 -0.921875 0
-0.953125 -0.9375 0
-0.9375 -0.9375 0
-0.953125 -0.921875 0
-0.9375 -0.921875 0
-0.96875 -0.921875 0
-0.953125 -0.921875 0
-0.96875 -0.90625 0
-0.953125 -0.90625 0
-0.953125 -0.921875 0
-0.9375 -0.921875 0
-0.953125 -0.90625 0
-0.9375 -0.90625 0
-1 -0.90625 0
-0.984375 -0.90625 0
-1 -0.890625 0
-0.984375 -0.890625 0
-0.984375 -0.90625 0
-0.96875 -0.90625 0
-0.984375 -0.890625 0
-0.96875 -0.890625 0
-1 -0.890625 0
-0.984375 -0.890625 0
-1 -0.875 0
-0.984375 -0.875 0
-0.984375 -0.890625 0
-0.96875 -0.890625 0
-0.984375 -0.875 0
-0.96875 -0.875 0
-0.96875 -0.90625 0
-0.953125 -0.90625 0
-0.96875 -0.890625 0
-0.953125 -0.890625 0
-0.953125 -0.90625 0
-0.9375 -0.90625 0
-0.953125 -0.890625 0
-0.9375 -0.890625 0
-0.96875 -0.890625 0
-0.953125 -0.890625 0
-0.96875 -0.875 0
-0.953125 -0.875 0
-0.953125 -0.890625 0
-0.9375 -0.890625 0
-0.953125 -0.875 0
-0.9375 -0.875 0
-0.9375 -0.9375 0
-0.921875 -0.9375 0
-0.9375 -0.921875 0
-0.921875 -0.921875 0
-0.921875 -0.9375 0
-0.90625 -0.9375 0
-0.921875 -0.921875 0
-0.90625 -0.921875 0
-0.9375 -0.921875 0
-0.921875 -0.921875 0
-0.9375 -0.90625 0
-0.921875 -0.90625 0
-0.921875 -0.921875 0
-0.90625 -0.921875 0
-0.921875 -0.90625 0
-0.90625 -0.90625 0
-0.90625 -0.9375 0
-0.890625 -0.9375 0
-0.90625 -0.921875 0
-0.890625 -0.921875 0
-0.890625 -0.9375 0
-0.875 -0.9375 0
-0.890625 -0.921875 0
-0.875 -0.921875 0
-0.90625 -0.921875 0
-0.890625 -0.921875 0
-0.90625 -0.90625 0
-0.890625 -0.90625 0
-0.890625 -0.921875 0
-0.875 -0.921875 0
-0.890625 -0.90625 0
-0.875 -0.90625 0
-0.9375 -0.90625 0
-0.921875 -0.90625 0
-0.9375 -0.890625 0
-0.921875 -0.890625 0
-0.921875 -0.90625 0
-0.90625 -0.90625 0
-0.921875 -0.890625 0
-0.90625 -0.890625 0
-0.9375 -0.890625 0
-0.921875 -0.890625 0
-0.9375 -0.875 0
-0.921875 -0.875 0
-0.921875 -0.890625 0
-0.90625 -0.890625 0
-0.921875 -0.875 0
-0.90625 -0.875 0
-0.90625 -0.90625 0
-0.890625 -0.90625 0
-0.90625 -0.890625 0
-0.890625 -0.890625 0
-0.890625 -0.90625 0
-0.875 -0.90625 0
-0.890625 -0.890625 0
-0.875 -0.890625 0
-0.90625 -0.890625 0
-0.890625 -0.890625 0
-0.90625 -0.875 0
-0.890625 -0.875 0
-0.890625 -0.890625 0
-0.875 -0.890625 0
-0.890625 -0.875 0
-0.875 -0.875 0
-0.875 -1 0
-0.859375 -1 0
-0.875 -0.984375 0
-0.859375 -0.984375 0
-0.859375 -1 0
-0.84375 -1 0
-0.859375 -0.984375 0
-0.84375 -0.984375 0
-0.875 -0.984375 0
-0.859375 -0.984375 0
-0.875 -0.96875 0
-0.859375 -0.96875 0
-0.859375 -0.984375 0
-0.84375 -0.984375 0
-0.859375 -0.96875 0
-0.84375 -0.96875 0
-0.84375 -1 0
-0.828125 -1 0
-0.84375 -0.984375 0
-0.828125 -0.984375 0
-0.828125 -1 0
-0.8125 -1 0
-0.828125 -0.984375 0
-0.8125 -0.984375 0
-0.84375 -0.984375 0
-0.828125 -0.984375 0
-0.84375 -0.96875 0
-0.828125 -0.96875 0
-0.828125 -0.984375 0
-0.8125 -0.984375 0
-0.828125 -0.96875 0
-0.8125 -0.96875 0
-0.875 -0.96875 0
-0.859375 -0.96875 0
-0.875 -0.953125 0
-0.859375 -0.953125 0
-0.859375 -0.96875 0
-0.84375 -0.96875 0
-0.859375 -0.953125 0
-0.84375 -0.953125 0
-0.875 -0.953125 0
-0.859375 -0.953125 0
-0.875 -0.9375 0
-0.859375 -0.9375 0
-0.859375 -0.953125 0
-0.84375 -0.953125 0
-0.859375 -0.9375 0
-0.84375 -0.9375 0
-0.84375 -0.96875 0
-0.828125 -0.96875 0
-0.84375 -0.953125 0
-0.828125 -0.953125 0
-0.828125 -0.96875 0
-0.8125 -0.96875 0
-0.828125 -0.953125 0
-0.8125 -0.953125 0
-0.84375 -0.953125 0
-0.828125 -0.953125 0
-0.84375 -0.9375 0
-0.828125 -0.9375 0
-0.828125 -0.953125 0
-0.8125 -0.953125 0
-0.828125 -0.9375 0
-0.8125 -0.9375 0
-0.8125 -1 0
-0.796875 -1 0
-0.8125 -0.984375 0
-0.796875 -0.984375 0
-0.796875 -1 0
-0.78125 -1 0
-0.796875 -0.984375 0
-0.78125 -0.984375 0
-0.8125 -0.984375 0
-0.796875 -0.984375 0
-0.8125 -0.96875 0
-0.796875 -0.96875 0
-0.796875 -0.984375 0
-0.78125 -0.984375 0
-0.796875 -0.96875 0
-0.78125 -0.96875 0
-0.78125 -1 0
-0.765625 -1 0
-0.78125 -0.984375 0
-0.765625 -0.984375 0
-0.765625 -1 0
-0.75 -1 0
-0.765625 -0.984375 0
-0.75 -0.984375 0
-0.78125 -0.984375 0
-0.765625 -0.984375 0
-0.78125 -0.96875 0
-0.765625 -0.96875 0
-0.765625 -0.984375 0
-0.75 -0.984375 0
-0.765625 -0.96875 0
-0.75 -0.96875 0
-0.8125 -0.96875 0
-0.796875 -0.96875 0
-0.8125 -0.953125 0
-0.796875 -0.953125 0
-0.796875 -0.96875 0
-0.78125 -0.96875 0
-0.796875 -0.953125 0
-0.78125 -0.953125 0
-0.8125 -0.953125 0
-0.796875 -0.953125 0
-0.8125 -0.9375 0
-0.796875 -0.9375 0
-0.796875 -0.953125 0
-0.78125 -0.953125 0
-0.796875 -0.9375 0
-0.78125 -0.9375 0
-0.78125 -0.96875 0
-0.765625 -0.96875 0
-0.78125 -0.953125 0
-0.765625 -0.953125 0
-0.765625 -0.96875 0
-0.75 -0.96875 0
-0.765625 -0.953125 0
-0.75 -0.953125 0
-0.78125 -0.953125 0
-0.765625 -0.953125 0
-0.78125 -0.9375 0
-0.765625 -0.9375 0
-0.765625 -0.953125 0
-0.75 -0.953125 0
-0.765625 -0.9375 0
-0.75 -0.9375 0
-0.875 -0.9375 0
-0.859375 -0.9375 0
-0.875 -0.921875 0
-0.859375 -0.921875 0
-0.859375 -0.9375 0
-0.84375 -0.9375 0
-0.859375 -0.921875 0
-0.84375 -0.921875 0
-0.875 -0.921875 0
-0.859375 -0.921875 0
-0.875 -0.90625 0
-0.859375 -0.90625 0
-0.859375 -0.921875 0
-0.84375 -0.921875 0
-0.859375 -0.90625 0
-0.84375 -0.90625 0
-0.84375 -0.9375 0
-0.828125 -0.9375 0
-0.84375 -0.921875 0
-0.828125 -0.921875 0
-0.828125 -0.9375 0
-0.8125 -0.9375 0
-0.828125 -0.921875 0
-0.8125 -0.921875 0
-0.84375 -0.921875 0
-0.828125 -0.921875 0
-0.84375 -0.90625 0
-0.828125 -0.90625 0
-0.828125 -0.921875 0
-0.8125 -0.921875 0
-0.828125 -0.90625 0
-0.8125 -0.90625 0
-0.875 -0.90625 0
-0.859375 -0.90625 0
-0.875 -0.890625 0
-0.859375 -0.890625 0
-0.859375 -0.90625 0
-0.84375 -0.90625 0
-0.859375 -0.890625 0
-0.84375 -0.890625 0
-0.875 -0.890625 0
-0.859375 -0.890625 0
-0.875 -0.875 0
-0.859375 -0.875 0
-0.859375 -0.890625 0
-0.84375 -0.890625 0
-0.859375 -0.875 0
-0.84375 -0.875 0
-0.84375 -0.90625 0
-0.828125 -0.90625 0
-0.84375 -0.890625 0
-0.828125 -0.890625 0
-0.828125 -0.90625 0
-0.8125 -0.90625 0
-0.828125 -0.890625 0
-0.8125 -0.890625 0
-0.84375 -0.890625 0
-0.828125 -0.890625 0
-0.84375 -0.875 0
-0.828125 -0.875 0
-0.828125 -0.890625 0
-0.8125 -0.890625 0
-0.828125 -0.875 0
-0.8125 -0.875 0
-0.8125 -0.9375 0
-0.796875 -0.9375 0
-0.8125 -0.921875 0
-0.796875 -0.921875 0
-0.796875 -0.9375 0
-0.78125 -0.9375 0
-0.796875 -0.921875 0
-0.78125 -0.921875 0
-0.8125 -0.921875 0
-0.796875 -0.921875 0
-0.8125 -0.90625 0
-0.796875 -0.90625 0
-0.796875 -0.921875 0
-0.78125 -0.921875 0
-0.796875 -0.90625 0
-0.78125 -0.90625 0
-0.78125 -0.9375 0
-0.765625 -0.9375 0
-0.78125 -0.921875 0
-0.765625 -0.921875 0
-0.765625 -0.9375 0
-0.75 -0.9375 0
-0.765625 -0.921875 0
-0.75 -0.921875 0
-0.78125 -0.921875 0
-0.765625 -0.921875 0
-0.78125 -0.90625 0
-0.765625 -0.90625 0
-0.765625 -0.921875 0
-0.75 -0.921875 0
-0.765625 -0.90625 0
-0.75 -0.90625 0
-0.8125 -0.90625 0
-0.796875 -0.90625 0
-0.8125 -0.890625 0
-0.796875 -0.890625 0
-0.796875 -0.90625 0
[...]
  <PointData Scalars="scalars">
    <DataArray type="Float32" Name="U" format="ascii">
0 0 0 1.02229e-05 0 0 1.02229e-05 2.00994e-05 0 1.02229e-05 0 2.99804e-05 1.02229e-05 2.00994e-05 2.99804e-05 6.07346e-05 0 0 2.00994e-05 2.91363e-05 0 0 2.91363e-05 3.75228e-05 2.00994e-05 2.91363e-05 6.07346e-05 9.34805e-05 2.91363e-05 3.75228e-05 9.34805e-05 0.000127891 0 2.99804e-05 0 5.57225e-05 2.99804e-05 6.07346e-05 5.57225e-05 0.000110346 0 5.57225e-05 0 0.000104975 5.57225e-05 0.000110346 0.000104975 0.000210144 6.07346e-05 9.34805e-05 0.000110346 0.000162268 9.34805e-05 0.000127891 0.000162268 0.000211785 0.000110346 0.000162268 0.000210144 0.000315219 0.000162268 0.000211785 0.000315219 0.000419997 0 0 3.75228e-05 4.52017e-05 0 0 4.52017e-05 5.3658e-05 3.75228e-05 4.52017e-05 0.000127891 0.000164697 4.52017e-05 5.3658e-05 0.000164697 0.000201139 0 0 5.3658e-05 6.41323e-05 0 0 6.41323e-05 7.95883e-05 5.3658e-05 6.41323e-05 0.000201139 0.000236158 6.41323e-05 7.95883e-05 0.000236158 0.000264293 0.000127891 0.000164697 0.000211785 0.000257867 0.000164697 0.000201139 0.000257867 0.000303926 0.000211785 0.000257867 0.000419997 0.000522805 0.000257867 0.000303926 0.000522805 0.000621376 0.000201139 0.000236158 0.000303926 0.000350696 0.000236158 0.000264293 0.000350696 0.000404961 0.000303926 0.000350696 0.000621376 0.000712075 0.000350696 0.000404961 0.000712075 0.000790655 0 0.000104975 0 0.000155688 0.000104975 0.000210144 0.000155688 0.0003096 0 0.000155688 0 0.000210321 0.000155688 0.0003096 0.000210321 0.000421172 0.000210144 0.000315219 0.0003096 0.000462809 0.000315219 0.000419997 0.000462809 0.000611503 0.0003096 0.000462809 0.000421172 0.000628586 0.000462809 0.000611503 0.000628586 0.000836903 0 0.000210321 0 0.00024031 0.000210321 0.000421172 0.00024031 0.000479133 0 0.00024031 0 0.000265993 0.00024031 0.000479133 0.000265993 0.000528852 0.000421172 0.000628586 0.000479133 0.000715936 0.000628586 0.000836903 0.000715936 0.000948652 0.000479133 0.000715936 0.000528852 0.000794713 0.000715936 0.000948652 0.000794713 0.00105083 0.000419997 0.000522805 0.000611503 0.000760534 0.000522805 0.000621376 0.000760534 0.000905319 0.000611503 0.000760534 0.000836903 0.00103632 0.000760534 0.000905319 0.00103632 0.00123459 0.000621376 0.000712075 0.000905319 0.0010549 0.000712075 0.000790655 0.0010549 0.00120315 0.000905319 0.0010549 0.00123459 0.00141477 0.0010549 0.00120315 0.00141477 0.00159016 0.000836903 0.00103632 0.000948652 0.00117936 0.00103632 0.00123459 0.00117936 0.00140471 0.000948652 0.00117936 0.00105083 0.00131133 0.00117936 0.00140471 0.00131133 0.00155438 0.00123459 0.00141477 0.00140471 0.00163197 0.00141477 0.00159016 0.00163197 0.00185277 0.00140471 0.00163197 0.00155438 0.0017998 0.00163197 0.00185277 0.0017998 0.00201966 0 0 7.95883e-05 0.000101475 0 0 0.000101475 0.000130737 7.95883e-05 0.000101475 0.000264293 0.000284984 0.000101475 0.000130737 0.000284984 0.000296188 0 0 0.000130737 0.000164243 0 0 0.000164243 0.00019679 0.000130737 0.000164243 0.000296188 0.000306261 0.000164243 0.00019679 0.000306261 0.000322664 0.000264293 0.000284984 0.000404961 0.000465533 0.000284984 0.000296188 0.000465533 0.000535122 0.000404961 0.000465533 0.000790655 0.000856611 0.000465533 0.000535122 0.000856611 0.00091148 0.000296188 0.000306261 0.000535122 0.000599947 0.000306261 0.000322664 0.000599947 0.000653489 0.000535122 0.000599947 0.00091148 0.000969628 0.000599947 0.000653489 0.000969628 0.00104072 0 0 0.00019679 0.000222828 0 0 0.000222828 0.000240903 0.00019679 0.000222828 0.000322664 0.000357014 0.000222828 0.000240903 0.000357014 0.000405889 0 0 0.000240903 0.000257781 0 0 0.000257781 0.000279245 0.000240903 0.000257781 0.000405889 0.000456501 0.000257781 0.000279245 0.000456501 0.000490201 0.000322664 0.000357014 0.000653489 0.000679269 0.000357014 0.000405889 0.000679269 0.000692375 0.000653489 0.000679269 0.00104072 0.00114091 0.000679269 0.000692375 0.00114091 0.00124852 0.000405889 0.000456501 0.000692375 0.000710163 0.000456501 0.000490201 0.000710163 0.000772157 0.000692375 0.000710163 0.00124852 0.00134159 0.000710163 0.000772157 0.00134159 0.00136436 0.000790655 0.000856611 0.00120315 0.00135804 0.000856611 0.00091148 0.00135804 0.00150419 0.00120315 0.00135804 0.00159016 0.00173987 0.00135804 0.00150419 0.00173987 0.00189128 0.00091148 0.000969628 0.00150419 0.00163747 0.000969628 0.00104072 0.00163747 0.00173306 0.00150419 0.00163747 0.00189128 0.0020271 0.00163747 0.00173306 0.0020271 0.00219064 0.00159016 0.00173987 0.00185277 0.00207993 0.00173987 0.00189128 0.00207993 0.00229008 0.00185277 0.00207993 0.00201966 0.00223715 0.00207993 0.00229008 0.00223715 0.00242634 0.00189128 0.0020271 0.00229008 0.00250013 0.0020271 0.00219064 0.00250013 0.00266424 0.00229008 0.00250013 0.00242634 0.00261002 0.00250013 0.00266424 0.00261002 0.00277496 0.00104072 0.00114091 0.00173306 0.00178888 0.00114091 0.00124852 0.00178888 0.00181308 0.00173306 0.00178888 0.00219064 0.00235432 0.00178888 0.00181308 0.00235432 0.00254283 0.00124852 0.00134159 0.00181308 0.00184326 0.00134159 0.00136436 0.00184326 0.00192652 0.00181308 0.00184326 0.00254283 0.00268613 0.00184326 0.00192652 0.00268613 0.00278201 0.00219064 0.00235432 0.00266424 0.00281741 0.00235432 0.00254283 0.00281741 0.00290574 0.00266424 0.00281741 0.00277496 0.00293053 0.00281741 0.00290574 0.00293053 0.00308607 0.00254283 0.00268613 0.00290574 0.00300913 0.00268613 0.00278201 0.00300913 0.00306685 0.00290574 0.00300913 0.00308607 0.00321799 0.00300913 0.00306685 0.00321799 0.00337568 0 0.000265993 0 0.000262084 0.000265993 0.000528852 0.000262084 0.000527121 0 0.000262084 0 0.000251825 0.000262084 0.000527121 0.000251825 0.000501271 0.000528852 0.000794713 0.000527121 0.000780717 0.000794713 0.00105083 0.000780717 0.0010437 0.000527121 0.000780717 0.000501271 0.000752718 0.000780717 0.0010437 0.000752718 0.000996165 0 0.000251825 0 0.000237815 0.000251825 0.000501271 0.000237815 0.000469206 0 0.000237815 0 0.000200543 0.000237815 0.000469206 0.000200543 0.000410977 0.000501271 0.000752718 0.000469206 0.000712491 0.000752718 0.000996165 0.000712491 0.00093697 0.000469206 0.000712491 0.000410977 0.000595328 0.000712491 0.00093697 0.000595328 0.000810363 0.00105083 0.00131133 0.0010437 0.00128357 0.00131133 0.00155438 0.00128357 0.00154072 0.0010437 0.00128357 0.000996165 0.00124596 0.00128357 0.00154072 0.00124596 0.00147996 0.00155438 0.0017998 0.00154072 0.0017628 0.0017998 0.00201966 0.0017628 0.00201174 0.00154072 0.0017628 0.00147996 0.00173004 0.0017628 0.00201174 0.00173004 0.00195316 0.000996165 0.00124596 0.00093697 0.00118247 0.00124596 0.00147996 0.00118247 0.00139735 0.00093697 0.00118247 0.000810363 0.000973357 0.00118247 0.00139735 0.000973357 0.00119228 0.00147996 0.00173004 0.00139735 0.00163449 0.00173004 0.00195316 0.00163449 0.00182991 0.00139735 0.00163449 0.00119228 0.00133722 0.00163449 0.00182991 0.00133722 0.00157186 0 0.000200543 0 0.000164135 0.000200543 0.000410977 0.000164135 0.000325476 0 0.000164135 0 0.000114213 0.000164135 0.000325476 0.000114213 0.000215841 0.000410977 0.000595328 0.000325476 0.000498227 0.000595328 0.000810363 0.000498227 0.00066007 0.000325476 0.000498227 0.000215841 0.0003394 0.000498227 0.00066007 0.0003394 0.000427099 0 0.000114213 0 5.2514e-05 0.000114213 0.000215841 5.2514e-05 0.000123966 0 5.2514e-05 0 3.00039e-05 5.2514e-05 0.000123966 3.00039e-05 5.737e-05 0.000215841 0.0003394 0.000123966 0.000163112 0.0003394 0.000427099 0.000163112 0.000259913 0.000123966 0.000163112 5.737e-05 9.34421e-05 0.000163112 0.000259913 9.34421e-05 0.000118999 0.000810363 0.000973357 0.00066007 0.000847832 0.000973357 0.00119228 0.000847832 0.00100687 0.00066007 0.000847832 0.000427099 0.000555821 0.000847832 0.00100687 0.000555821 0.000633658 0.00119228 0.00133722 0.00100687 0.00120884 0.00133722 0.00157186 0.00120884 0.00134511 0.00100687 0.00120884 0.000633658 0.000768162 0.00120884 0.00134511 0.000768162 0.00085531 0.000427099 0.000555821 0.000259913 0.000290196 0.000555821 0.000633658 0.000290196 0.000417209 0.000259913 0.000290196 0.000118999 0.000168105 0.000290196 0.000417209 0.000168105 0.000191852 0.000633658 0.000768162 0.000417209 0.000438943 0.000768162 0.00085531 0.000438943 0.00059272 0.000417209 0.000438943 0.000191852 0.000266551 0.000438943 0.00059272 0.000266551 0.000290233 0.00201966 0.00223715 0.00201174 0.00221372 0.00223715 0.00242634 0.00221372 0.00245359 0.00201174 0.00221372 0.00195316 0.00220853 0.00221372 0.00245359 0.00220853 0.00241608 0.00242634 0.00261002 0.00245359 0.00263801 0.00261002 0.00277496 0.00263801 0.00287281 0.00245359 0.00263801 0.00241608 0.00266952 0.00263801 0.00287281 0.00266952 0.0028313 0.00195316 0.00220853 0.00182991 0.00203752 0.00220853 0.00241608 0.00203752 0.0022039 0.00182991 0.00203752 0.00157186 0.00171772 0.00203752 0.0022039 0.00171772 0.00198572 0.00241608 0.00266952 0.0022039 0.00237291 0.00266952 0.0028313 0.00237291 0.00254106 0.0022039 0.00237291 0.00198572 0.00214219 0.00237291 0.00254106 0.00214219 0.0024154 0.00277496 0.00293053 0.00287281 0.0030493 0.00293053 0.00308607 0.0030493 0.00327314 0.00287281 0.0030493 0.0028313 0.00304486 0.0030493 0.00327314 0.00304486 0.00312278 0.00308607 0.00321799 0.00327314 0.00342008 0.00321799 0.00337568 0.00342008 0.00356203 0.00327314 0.00342008 0.00312278 0.00329912 0.00342008 0.00356203 0.00329912 0.00336226 0.0028313 0.00304486 0.00254106 0.00271153 0.00304486 0.00312278 0.00271153 0.0029472 0.00254106 0.00271153 0.0024154 0.00253311 0.00271153 0.0029472 0.00253311 0.00272669 0.00312278 0.00329912 0.0029472 0.00312373 0.00329912 0.00336226 0.00312373 0.00337489 0.0029472 0.00312373 0.00272669 0.00278154 0.00312373 0.00337489 0.00278154 0.00291532 0.00157186 0.00171772 0.00134511 0.00154457 0.00171772 0.00198572 0.00154457 0.00162571 0.00134511 0.00154457 0.00085531 0.00100706 0.00154457 0.00162571 0.00100706 0.00113545 0.00198572 0.00214219 0.00162571 0.00181437 0.00214219 0.0024154 0.00181437 0.00184794 0.00162571 0.00181437 0.00113545 0.00130349 0.00181437 0.00184794 0.00130349 0.00147546 0.00085531 0.00100706 0.00059272 0.000600595 0.00100706 0.00113545 0.000600595 0.000772165 0.00059272 0.000600595 0.000290233 0.000406747 0.000600595 0.000772165 0.000406747 0.000428043 0.00113545 0.00130349 0.000772165 0.000776539 0.00130349 0.00147546 0.000776539 0.000978208 0.000772165 0.000776539 0.000428043 0.000589519 0.000776539 0.000978208 0.000589519 0.000589651 0.0024154 0.00253311 0.00184794 0.00207801 0.00253311 0.00272669 0.00207801 0.00212933 0.00184794 0.00207801 0.00147546 0.00160305 0.00207801 0.00212933 0.00160305 0.00178437 0.00272669 0.00278154 0.00212933 0.00243458 0.00278154 0.00291532 0.00243458 0.00247863 0.00212933 0.00243458 0.00178437 0.00183259 0.00243458 0.00247863 0.00183259 0.00207844 0.00147546 0.00160305 0.000978208 0.00103143 0.00160305 0.00178437 0.00103143 0.00128125 0.000978208 0.00103143 0.000589651 0.000781256 0.00103143 0.00128125 0.000781256 0.000760221 0.00178437 0.00183259 0.00128125 0.00141174 0.00183259 0.00207844 0.00141174 0.00163662 0.00128125 0.00141174 0.000760221 0.00100132 0.00141174 0.00163662 0.00100132 0.00102997 0 0 0.000279245 0.000306378 0 0 0.000306378 0.000319928 0.000279245 0.000306378 0.000490201 0.000508724 0.000306378 0.000319928 0.000508724 0.000546319 0 0 0.000319928 0.000311981 0 0 0.000311981 0.000293418 0.000319928 0.000311981 0.000546319 0.000631252 0.000311981 0.000293418 0.000631252 0.000748326 0.000490201 0.000508724 0.000772157 0.000867839 0.000508724 0.000546319 0.000867839 0.000957647 0.000772157 0.000867839 0.00136436 0.00133618 0.000867839 0.000957647 0.00133618 0.00129222 0.000546319 0.000631252 0.000957647 0.000974992 0.000631252 0.000748326 0.000974992 0.00093453 0.000957647 0.000974992 0.00129222 0.00134158 0.000974992 0.00093453 0.00134158 0.00146783 0 0 0.000293418 0.00032001 0 0 0.00032001 0.0004059 0.000293418 0.00032001 0.000748326 0.000801423 0.00032001 0.0004059 0.000801423 0.000751043 0 0 0.0004059 0.000502108 0 0 0.000502108 0.000502317 0.0004059 0.000502108 0.000751043 0.000663181 0.000502108 0.000502317 0.000663181 0.000717608 0.000748326 0.000801423 0.00093453 0.000937716 0.000801423 0.000751043 0.000937716 0.00106554 0.00093453 0.000937716 0.00146783 0.00160644 0.000937716 0.00106554 0.00160644 0.00162365 0.000751043 0.000663181 0.00106554 0.00126344 0.000663181 0.000717608 0.00126344 0.00133992 0.00106554 0.00126344 0.00162365 0.00156636 0.00126344 0.00133992 0.00156636 0.00155553 0.00136436 0.00133618 0.00192652 0.00205665 0.00133618 0.00129222 0.00205665 0.00219986 0.00192652 0.00205665 0.00278201 0.00278432 0.00205665 0.00219986 0.00278432 0.00275058 0.00129222 0.00134158 0.00219986 0.00224057 0.00134158 0.00146783 0.00224057 0.00219187 0.00219986 0.00224057 0.00275058 0.00272412 0.00224057 0.00219187 0.00272412 0.00272926 0.00278201 0.00278432 0.00306685 0.00317729 0.00278432 0.00275058 0.00317729 0.0032323 0.00306685 0.00317729 0.00337568 0.00347883 0.00317729 0.0032323 0.00347883 0.00362003 0.00275058 0.00272412 0.0032323 0.00331581 0.00272412 0.00272926 0.00331581 0.00331303 0.0032323 0.00331581 0.00362003 0.00362886 0.00331581 0.00331303 0.00362886 0.00366911 0.00146783 0.00160644 0.00219187 0.00206509 0.00160644 0.00162365 0.00206509 0.00202277 0.00219187 0.00206509 0.00272926 0.00275881 0.00206509 0.00202277 0.00275881 0.00270301 0.00162365 0.00156636 0.00202277 0.00199572 0.00156636 0.00155553 0.00199572 0.00198421 0.00202277 0.00199572 0.00270301 0.0026343 0.00199572 0.00198421 0.0026343 0.00246149 0.00272926 0.00275881 0.00331303 0.00330934 0.00275881 0.00270301 0.00330934 0.00323631 0.00331303 0.00330934 0.00366911 0.00355527 0.00330934 0.00323631 0.00355527 0.00356435 0.00270301 0.0026343 0.00323631 0.00311975 0.0026343 0.00246149 0.00311975 0.00299602 0.00323631 0.00311975 0.00356435 0.0034669 0.00311975 0.00299602 0.0034669 0.00342733 0 0 0.000502317 0.000410895 0 0 0.000410895 0.000345768 0.000502317 0.000410895 0.000717608 0.000905568 0.000410895 0.000345768 0.000905568 0.00106199 0 0 0.000345768 0.000393054 0 0 0.000393054 0.000495567 0.000345768 0.000393054 0.00106199 0.00104845 0.000393054 0.000495567 0.00104845 0.000996389 0.000717608 0.000905568 0.00133992 0.00129908 0.000905568 0.00106199 0.00129908 0.00127403 0.00133992 0.00129908 0.00155553 0.00161534 0.00129908 0.00127403 0.00161534 0.00164799 0.00106199 0.00104845 0.00127403 0.00140636 0.00104845 0.000996389 0.00140636 0.00147967 0.00127403 0.00140636 0.00164799 0.00155314 0.00140636 0.00147967 0.00155314 0.00157217 0 0 0.000495567 0.000555461 0 0 0.000555461 0.000626026 0.000495567 0.000555461 0.000996389 0.00102298 0.000555461 0.000626026 0.00102298 0.00101012 0 0 0.000626026 0.000632963 0 0 0.000632963 0.00054208 0.000626026 0.000632963 0.00101012 0.00103533 0.000632963 0.00054208 0.00103533 0.00118728 0.000996389 0.00102298 0.00147967 0.00144987 0.00102298 0.00101012 0.00144987 0.00146 0.00147967 0.00144987 0.00157217 0.00164129 0.00144987 0.00146 0.00164129 0.00167136 0.00101012 0.00103533 0.00146 0.00153492 0.00103533 0.00118728 0.00153492 0.00148724 0.00146 0.00153492 0.00167136 0.00143302 0.00153492 0.00148724 0.00143302 0.00119974 0.00155553 0.00161534 0.00198421 0.00188894 0.00161534 0.00164799 0.00188894 0.00183135 0.00198421 0.00188894 0.00246149 0.0023496 0.00188894 0.00183135 0.0023496 0.00210482 0.00164799 0.00155314 0.00183135 0.00179616 0.00155314 0.00157217 0.00179616 0.00164547 0.00183135 0.00179616 0.00210482 0.00189647 0.00179616 0.00164547 0.00189647 0.00158663 0.00246149 0.0023496 0.00299602 0.002766 0.0023496 0.00210482 0.002766 0.00258696 0.00299602 0.002766 0.00342733 0.00327237 0.002766 0.00258696 0.00327237 0.00314771 0.00210482 0.00189647 0.00258696 0.00222414 0.00189647 0.00158663 0.00222414 0.00210918 0.00258696 0.00222414 0.00314771 0.00310538 0.00222414 0.00210918 0.00310538 0.00273069 0.00157217 0.00164129 0.00164547 0.00142672 0.00164129 0.00167136 0.00142672 0.00110367 0.00164547 0.00142672 0.00158663 0.00132565 0.00142672 0.00110367 0.00132565 0.00117446 0.00167136 0.00143302 0.00110367 0.00103287 0.00143302 0.00119974 0.00103287 0.000919432 0.00110367 0.00103287 0.00117446 0.000921241 0.00103287 0.000919432 0.000921241 0.000653685 0.00158663 0.00132565 0.00210918 0.00184974 0.00132565 0.00117446 0.00184974 0.00155478 0.00210918 0.00184974 0.00273069 0.00238204 0.00184974 0.00155478 0.00238204 0.00179647 0.00117446 0.000921241 0.00155478 0.000957099 0.000921241 0.000653685 0.000957099 0.000471547 0.00155478 0.000957099 0.00179647 0.00174669 0.000957099 0.000471547 0.00174669 0.00124804 0.00337568 0.00347883 0.00356203 0.00361445 0.00347883 0.00362003 0.00361445 0.00363938 0.00356203 0.00361445 0.00336226 0.00359889 0.00361445 0.00363938 0.00359889 0.00370935 0.00362003 0.00362886 0.00363938 0.00369756 0.00362886 0.00366911 0.00369756 0.00374721 0.00363938 0.00369756 0.00370935 0.00390177 0.00369756 0.00374721 0.00390177 0.0038987 0.00336226 0.00359889 0.00337489 0.00342571 0.00359889 0.00370935 0.00342571 0.00361091 0.00337489 0.00342571 0.00291532 0.00304022 0.00342571 0.00361091 0.00304022 0.00317673 0.00370935 0.00390177 0.00361091 0.00358503 0.00390177 0.0038987 0.00358503 0.00384549 0.00361091 0.00358503 0.00317673 0.00336477 0.00358503 0.00384549 0.00336477 0.00334308 0.00366911 0.00355527 0.00374721 0.00389357 0.00355527 0.00356435 0.00389357 0.0038287 0.00374721 0.00389357 0.0038987 0.00393052 0.00389357 0.0038287 0.00393052 0.0039885 0.00356435 0.0034669 0.0038287 0.00387005 0.0034669 0.00342733 0.00387005 0.00371226 0.0038287 0.00387005 0.0039885 0.00401757 0.00387005 0.00371226 0.00401757 0.00407879 0.0038987 0.00393052 0.00384549 0.00382469 0.00393052 0.0039885 0.00382469 0.00396495 0.00384549 0.00382469 0.00334308 0.00354069 0.00382469 0.00396495 0.00354069 0.00348535 0.0039885 0.00401757 0.00396495 0.00379745 0.00401757 0.00407879 0.00379745 0.00384861 0.00396495 0.00379745 0.00348535 0.00386768 0.00379745 0.00384861 0.00386768 0.00379911 0.00291532 0.00304022 0.00247863 0.00274052 0.00304022 0.00317673 0.00274052 0.00272049 0.00247863 0.00274052 0.00207844 0.0021317 0.00274052 0.00272049 0.0021317 0.00251568 0.00317673 0.00336477 0.00272049 0.00293094 0.00336477 0.00334308 0.00293094 0.00302855 0.00272049 0.00293094 0.00251568 0.00256003 0.00293094 0.00302855 0.00256003 0.00292934 0.00207844 0.0021317 0.00163662 0.00180028 0.0021317 0.00251568 0.00180028 0.00192093 0.00163662 0.00180028 0.00102997 0.00134591 0.00180028 0.00192093 0.00134591 0.00147053 0.00251568 0.00256003 0.00192093 0.00216878 0.00256003 0.00292934 0.00216878 0.00225429 0.00192093 0.00216878 0.00147053 0.00180314 0.00216878 0.00225429 0.00180314 0.00206238 0.00334308 0.00354069 0.00302855 0.00324054 0.00354069 0.00348535 0.00324054 0.00345582 0.00302855 0.00324054 0.00292934 0.00288187 0.00324054 0.00345582 0.00288187 0.00314308 0.00348535 0.00386768 0.00345582 0.00345884 0.00386768 0.00379911 0.00345884 0.00371312 0.00345582 0.00345884 0.00314308 0.00318654 0.00345884 0.00371312 0.00318654 0.00345566 0.00292934 0.00288187 0.00225429 0.00269105 0.00288187 0.00314308 0.00269105 0.0028458 0.00225429 0.00269105 0.00206238 0.00237169 0.00269105 0.0028458 0.00237169 0.00274197 0.00314308 0.00318654 0.0028458 0.00343218 0.00318654 0.00345566 0.00343218 0.00357504 0.0028458 0.00343218 0.00274197 0.00289744 0.00343218 0.00357504 0.00289744 0.00336073 0.00342733 0.00327237 0.00371226 0.00382231 0.00327237 0.00314771 0.00382231 0.00359938 0.00371226 0.00382231 0.00407879 0.0037563 0.00382231 0.00359938 0.0037563 0.00377126 0.00314771 0.00310538 0.00359938 0.00338161 0.00310538 0.00273069 0.00338161 0.00310014 0.00359938 0.00338161 0.00377126 0.00355895 0.00338161 0.00310014 0.00355895 0.0037518 0.00407879 0.0037563 0.00384861 0.00396942 0.0037563 0.00377126 0.00396942 0.00398906 0.00384861 0.00396942 0.00379911 0.00402489 0.00396942 0.00398906 0.00402489 0.00385441 0.00377126 0.00355895 0.00398906 0.00409478 0.00355895 0.0037518 0.0040