# vtk DataFile Version 3.0
#This file was generated by the deal.II library on 2021/4/23 at 0:45:48
ASCII
DATASET UNSTRUCTURED_GRID

FIELD FieldData 2
CYCLE 1 1 int
209
TIME 1 1 double
0.418
POINTS 3444 double
-1 -1 0
-0.75 -1 0
-1 -0.75 0
-0.75 -0.75 0
-0.75 -1 0
-0.5 -1 0
-0.75 -0.75 0
-0.5 -0.75 0
-1 -0.75 0
-0.75 -0.75 0
-1 -0.5 0
-0.75 -0.5 0
-0.75 -0.75 0
-0.5 -0.75 0
-0.75 -0.5 0
-0.5 -0.5 0
-0.5 -1 0
-0.25 -1 0
-0.5 -0.75 0
-0.25 -0.75 0
-0.25 -1 0
0 -1 0
-0.25 -0.75 0
0 -0.75 0
-0.5 -0.75 0
-0.25 -0.75 0
-0.5 -0.5 0
-0.25 -0.5 0
-1 -0.5 0
-0.75 -0.5 0
-1 -0.25 0
-0.75 -0.25 0
-1 -0.25 0
-0.75 -0.25 0
-1 0 0
-0.75 0 0
-0.25 -0.5 0
0 -0.5 0
-0.25 -0.25 0
0 -0.25 0
-0.75 -0.25 0
-0.625 -0.25 0
-0.75 -0.125 0
-0.625 -0.125 0
-0.625 -0.25 0
-0.5 -0.25 0
-0.625 -0.125 0
-0.5 -0.125 0
-0.75 -0.125 0
-0.625 -0.125 0
-0.75 0 0
-0.625 0 0
-0.625 -0.125 0
-0.5 -0.125 0
-0.625 0 0
-0.5 0 0
-0.375 -0.25 0
-0.25 -0.25 0
-0.375 -0.125 0
-0.25 -0.125 0
-0.375 -0.125 0
-0.25 -0.125 0
-0.375 0 0
-0.25 0 0
0 -0.75 0
0.125 -0.75 0
0 -0.625 0
0.125 -0.625 0
0.125 -0.75 0
0.25 -0.75 0
0.125 -0.625 0
0.25 -0.625 0
0 -0.625 0
0.125 -0.625 0
0 -0.5 0
0.125 -0.5 0
0.125 -0.625 0
0.25 -0.625 0
0.125 -0.5 0
0.25 -0.5 0
0 -0.5 0
0.125 -0.5 0
0 -0.375 0
0.125 -0.375 0
0.125 -0.5 0
0.25 -0.5 0
0.125 -0.375 0
0.25 -0.375 0
0 -0.375 0
0.125 -0.375 0
0 -0.25 0
0.125 -0.25 0
0.125 -0.375 0
0.25 -0.375 0
0.125 -0.25 0
0.25 -0.25 0
-0.25 -0.75 0
-0.125 -0.75 0
-0.25 -0.625 0
-0.125 -0.625 0
-0.125 -0.75 0
0 -0.75 0
-0.125 -0.625 0
0 -0.625 0
-0.25 -0.625 0
-0.125 -0.625 0
-0.25 -0.5 0
-0.125 -0.5 0
-0.125 -0.625 0
0 -0.625 0
-0.125 -0.5 0
0 -0.5 0
0 -1 0
0.125 -1 0
0 -0.875 0
0.125 -0.875 0
0.125 -1 0
0.25 -1 0
0.125 -0.875 0
0.25 -0.875 0
0 -0.875 0
0.125 -0.875 0
0 -0.75 0
0.125 -0.75 0
0.125 -0.875 0
0.25 -0.875 0
0.125 -0.75 0
0.25 -0.75 0
-0.5 0 0
-0.375 0 0
-0.5 0.125 0
-0.375 0.125 0
-0.5 -0.5 0
-0.375 -0.5 0
-0.5 -0.375 0
-0.375 -0.375 0
-0.375 -0.5 0
-0.25 -0.5 0
-0.375 -0.375 0
-0.25 -0.375 0
-0.5 -0.375 0
-0.375 -0.375 0
-0.5 -0.25 0
-0.375 -0.25 0
-0.375 -0.375 0
-0.25 -0.375 0
-0.375 -0.25 0
-0.25 -0.25 0
0.25 -1 0
0.375 -1 0
0.25 -0.875 0
0.375 -0.875 0
0.375 -1 0
0.5 -1 0
0.375 -0.875 0
0.5 -0.875 0
0.25 -0.875 0
0.375 -0.875 0
0.25 -0.75 0
0.375 -0.75 0
0.375 -0.875 0
0.5 -0.875 0
0.375 -0.75 0
0.5 -0.75 0
0.25 -0.75 0
0.375 -0.75 0
0.25 -0.625 0
0.375 -0.625 0
0.5 -1 0
0.625 -1 0
0.5 -0.875 0
0.625 -0.875 0
0.625 -1 0
0.75 -1 0
0.625 -0.875 0
0.75 -0.875 0
0.5 -0.875 0
0.625 -0.875 0
0.5 -0.75 0
0.625 -0.75 0
0.625 -0.875 0
0.75 -0.875 0
0.625 -0.75 0
0.75 -0.75 0
-0.75 -0.5 0
-0.625 -0.5 0
-0.75 -0.375 0
-0.625 -0.375 0
-0.625 -0.5 0
-0.5 -0.5 0
-0.625 -0.375 0
-0.5 -0.375 0
-0.75 -0.375 0
-0.625 -0.375 0
-0.75 -0.25 0
-0.625 -0.25 0
-0.625 -0.375 0
-0.5 -0.375 0
-0.625 -0.25 0
-0.5 -0.25 0
-0.25 -0.25 0
-0.125 -0.25 0
-0.25 -0.125 0
-0.125 -0.125 0
-0.125 -0.25 0
0 -0.25 0
-0.125 -0.125 0
0 -0.125 0
-0.25 -0.125 0
-0.125 -0.125 0
-0.25 0 0
-0.125 0 0
-1 0.25 0
-0.875 0.25 0
-1 0.375 0
-0.875 0.375 0
-0.875 0.25 0
-0.75 0.25 0
-0.875 0.375 0
-0.75 0.375 0
-1 0.375 0
-0.875 0.375 0
-1 0.5 0
-0.875 0.5 0
0.75 -1 0
0.875 -1 0
0.75 -0.875 0
0.875 -0.875 0
0.875 -1 0
1 -1 0
0.875 -0.875 0
1 -0.875 0
0.75 -0.875 0
0.875 -0.875 0
0.75 -0.75 0
0.875 -0.75 0
0.875 -0.875 0
1 -0.875 0
0.875 -0.75 0
1 -0.75 0
-1 0 0
-0.875 0 0
-1 0.125 0
-0.875 0.125 0
-0.875 0 0
-0.75 0 0
-0.875 0.125 0
-0.75 0.125 0
-1 0.125 0
-0.875 0.125 0
-1 0.25 0
-0.875 0.25 0
-0.875 0.125 0
-0.75 0.125 0
-0.875 0.25 0
-0.75 0.25 0
-1 0.5 0
-0.875 0.5 0
-1 0.625 0
-0.875 0.625 0
-1 0.625 0
-0.875 0.625 0
-1 0.75 0
-0.875 0.75 0
-0.875 0.625 0
-0.75 0.625 0
-0.875 0.75 0
-0.75 0.75 0
0.125 -0.25 0
0.25 -0.25 0
0.125 -0.125 0
0.25 -0.125 0
0.125 -0.125 0
0.25 -0.125 0
0.125 0 0
0.25 0 0
-1 0.75 0
-0.875 0.75 0
-1 0.875 0
-0.875 0.875 0
-0.875 0.75 0
-0.75 0.75 0
-0.875 0.875 0
-0.75 0.875 0
-1 0.875 0
-0.875 0.875 0
-1 1 0
-0.875 1 0
-0.875 0.875 0
-0.75 0.875 0
-0.875 1 0
-0.75 1 0
-0.625 0.25 0
-0.5625 0.25 0
-0.625 0.3125 0
-0.5625 0.3125 0
-0.5625 0.25 0
-0.5 0.25 0
-0.5625 0.3125 0
-0.5 0.3125 0
-0.625 0.3125 0
-0.5625 0.3125 0
-0.625 0.375 0
-0.5625 0.375 0
-0.5625 0.3125 0
-0.5 0.3125 0
-0.5625 0.375 0
-0.5 0.375 0
-0.75 0.375 0
-0.6875 0.375 0
-0.75 0.4375 0
-0.6875 0.4375 0
-0.6875 0.375 0
-0.625 0.375 0
-0.6875 0.4375 0
-0.625 0.4375 0
-0.75 0.4375 0
-0.6875 0.4375 0
-0.75 0.5 0
-0.6875 0.5 0
-0.6875 0.4375 0
-0.625 0.4375 0
-0.6875 0.5 0
-0.625 0.5 0
-0.625 0.375 0
-0.5625 0.375 0
-0.625 0.4375 0
-0.5625 0.4375 0
-0.5625 0.375 0
-0.5 0.375 0
-0.5625 0.4375 0
-0.5 0.4375 0
-0.625 0.4375 0
-0.5625 0.4375 0
-0.625 0.5 0
-0.5625 0.5 0
-0.25 0.125 0
-0.1875 0.125 0
-0.25 0.1875 0
-0.1875 0.1875 0
-0.1875 0.125 0
-0.125 0.125 0
-0.1875 0.1875 0
-0.125 0.1875 0
-0.25 0.1875 0
-0.1875 0.1875 0
-0.25 0.25 0
-0.1875 0.25 0
-0.1875 0.1875 0
-0.125 0.1875 0
-0.1875 0.25 0
-0.125 0.25 0
-0.5 -0.125 0
-0.4375 -0.125 0
-0.5 -0.0625 0
-0.4375 -0.0625 0
-0.4375 -0.125 0
-0.375 -0.125 0
-0.4375 -0.0625 0
-0.375 -0.0625 0
-0.5 -0.0625 0
-0.4375 -0.0625 0
-0.5 0 0
-0.4375 0 0
-0.4375 -0.0625 0
-0.375 -0.0625 0
-0.4375 0 0
-0.375 0 0
-0.625 0 0
-0.5625 0 0
-0.625 0.0625 0
-0.5625 0.0625 0
-0.5625 0 0
-0.5 0 0
-0.5625 0.0625 0
-0.5 0.0625 0
-0.625 0.0625 0
-0.5625 0.0625 0
-0.625 0.125 0
-0.5625 0.125 0
-0.5625 0.0625 0
-0.5 0.0625 0
-0.5625 0.125 0
-0.5 0.125 0
-0.625 0.125 0
-0.5625 0.125 0
-0.625 0.1875 0
-0.5625 0.1875 0
-0.5625 0.125 0
-0.5 0.125 0
-0.5625 0.1875 0
-0.5 0.1875 0
-0.625 0.1875 0
-0.5625 0.1875 0
-0.625 0.25 0
-0.5625 0.25 0
-0.5625 0.1875 0
-0.5 0.1875 0
-0.5625 0.25 0
-0.5 0.25 0
-0.5 0.125 0
-0.4375 0.125 0
-0.5 0.1875 0
-0.4375 0.1875 0
-0.4375 0.125 0
-0.375 0.125 0
-0.4375 0.1875 0
-0.375 0.1875 0
-0.5 0.1875 0
-0.4375 0.1875 0
-0.5 0.25 0
-0.4375 0.25 0
-0.4375 0.1875 0
-0.375 0.1875 0
-0.4375 0.25 0
-0.375 0.25 0
-0.125 -0.125 0
-0.0625 -0.125 0
-0.125 -0.0625 0
-0.0625 -0.0625 0
-0.0625 -0.125 0
0 -0.125 0
-0.0625 -0.0625 0
0 -0.0625 0
-0.125 -0.0625 0
-0.0625 -0.0625 0
-0.125 0 0
-0.0625 0 0
-0.875 0.375 0
-0.8125 0.375 0
-0.875 0.4375 0
-0.8125 0.4375 0
-0.8125 0.375 0
-0.75 0.375 0
-0.8125 0.4375 0
-0.75 0.4375 0
-0.875 0.4375 0
-0.8125 0.4375 0
-0.875 0.5 0
-0.8125 0.5 0
-0.8125 0.4375 0
-0.75 0.4375 0
-0.8125 0.5 0
-0.75 0.5 0
-0.5 -0.25 0
-0.4375 -0.25 0
-0.5 -0.1875 0
-0.4375 -0.1875 0
-0.4375 -0.25 0
-0.375 -0.25 0
-0.4375 -0.1875 0
-0.375 -0.1875 0
-0.5 -0.1875 0
-0.4375 -0.1875 0
-0.5 -0.125 0
-0.4375 -0.125 0
-0.4375 -0.1875 0
-0.375 -0.1875 0
-0.4375 -0.125 0
-0.375 -0.125 0
-0.125 0 0
-0.0625 0 0
-0.125 0.0625 0
-0.0625 0.0625 0
-0.125 0.0625 0
-0.0625 0.0625 0
-0.125 0.125 0
-0.0625 0.125 0
-0.0625 0.0625 0
0 0.0625 0
-0.0625 0.125 0
0 0.125 0
-0.75 0.25 0
-0.6875 0.25 0
-0.75 0.3125 0
-0.6875 0.3125 0
-0.6875 0.25 0
-0.625 0.25 0
-0.6875 0.3125 0
-0.625 0.3125 0
-0.75 0.3125 0
-0.6875 0.3125 0
-0.75 0.375 0
-0.6875 0.375 0
-0.6875 0.3125 0
-0.625 0.3125 0
-0.6875 0.375 0
-0.625 0.375 0
0 -0.125 0
0.0625 -0.125 0
0 -0.0625 0
0.0625 -0.0625 0
0.0625 -0.125 0
0.125 -0.125 0
0.0625 -0.0625 0
0.125 -0.0625 0
0.0625 -0.0625 0
0.125 -0.0625 0
0.0625 0 0
0.125 0 0
-0.125 0.125 0
-0.0625 0.125 0
-0.125 0.1875 0
-0.0625 0.1875 0
-0.0625 0.125 0
0 0.125 0
-0.0625 0.1875 0
0 0.1875 0
-0.125 0.1875 0
-0.0625 0.1875 0
-0.125 0.25 0
-0.0625 0.25 0
-0.0625 0.1875 0
0 0.1875 0
-0.0625 0.25 0
0 0.25 0
-0.875 0.5 0
-0.8125 0.5 0
-0.875 0.5625 0
-0.8125 0.5625 0
-0.8125 0.5 0
-0.75 0.5 0
-0.8125 0.5625 0
-0.75 0.5625 0
-0.875 0.5625 0
-0.8125 0.5625 0
-0.875 0.625 0
-0.8125 0.625 0
-0.8125 0.5625 0
-0.75 0.5625 0
-0.8125 0.625 0
-0.75 0.625 0
-0.75 0 0
-0.6875 0 0
-0.75 0.0625 0
-0.6875 0.0625 0
-0.6875 0 0
-0.625 0 0
-0.6875 0.0625 0
-0.625 0.0625 0
-0.75 0.0625 0
-0.6875 0.0625 0
-0.75 0.125 0
-0.6875 0.125 0
-0.6875 0.0625 0
-0.625 0.0625 0
-0.6875 0.125 0
-0.625 0.125 0
-0.75 0.125 0
-0.6875 0.125 0
-0.75 0.1875 0
-0.6875 0.1875 0
-0.6875 0.125 0
-0.625 0.125 0
-0.6875 0.1875 0
-0.625 0.1875 0
-0.75 0.1875 0
-0.6875 0.1875 0
-0.75 0.25 0
-0.6875 0.25 0
-0.6875 0.1875 0
-0.625 0.1875 0
-0.6875 0.25 0
-0.625 0.25 0
-0.375 0 0
-0.3125 0 0
-0.375 0.0625 0
-0.3125 0.0625 0
-0.3125 0 0
-0.25 0 0
-0.3125 0.0625 0
-0.25 0.0625 0
-0.375 0.0625 0
-0.3125 0.0625 0
-0.375 0.125 0
-0.3125 0.125 0
-0.3125 0.0625 0
-0.25 0.0625 0
-0.3125 0.125 0
-0.25 0.125 0
0 -0.25 0
0.0625 -0.25 0
0 -0.1875 0
0.0625 -0.1875 0
0.0625 -0.25 0
0.125 -0.25 0
0.0625 -0.1875 0
0.125 -0.1875 0
0 -0.1875 0
0.0625 -0.1875 0
0 -0.125 0
0.0625 -0.125 0
0.0625 -0.1875 0
0.125 -0.1875 0
0.0625 -0.125 0
0.125 -0.125 0
0.5 -0.625 0
0.5625 -0.625 0
0.5 -0.5625 0
0.5625 -0.5625 0
0.5 -0.5625 0
0.5625 -0.5625 0
0.5 -0.5 0
0.5625 -0.5 0
0.875 -0.75 0
0.9375 -0.75 0
0.875 -0.6875 0
0.9375 -0.6875 0
0.9375 -0.75 0
1 -0.75 0
0.9375 -0.6875 0
1 -0.6875 0
0.875 -0.6875 0
0.9375 -0.6875 0
0.875 -0.625 0
0.9375 -0.625 0
0.9375 -0.6875 0
1 -0.6875 0
0.9375 -0.625 0
1 -0.625 0
-0.25 0 0
-0.1875 0 0
-0.25 0.0625 0
-0.1875 0.0625 0
-0.1875 0 0
-0.125 0 0
-0.1875 0.0625 0
-0.125 0.0625 0
-0.25 0.0625 0
-0.1875 0.0625 0
-0.25 0.125 0
-0.1875 0.125 0
-0.1875 0.0625 0
-0.125 0.0625 0
-0.1875 0.125 0
-0.125 0.125 0
0.9375 -0.625 0
1 -0.625 0
0.9375 -0.5625 0
1 -0.5625 0
0.9375 -0.5625 0
1 -0.5625 0
0.9375 -0.5 0
1 -0.5 0
-0.375 0.125 0
-0.3125 0.125 0
-0.375 0.1875 0
-0.3125 0.1875 0
-0.3125 0.125 0
-0.25 0.125 0
-0.3125 0.1875 0
-0.25 0.1875 0
-0.375 0.1875 0
-0.3125 0.1875 0
-0.375 0.25 0
-0.3125 0.25 0
-0.3125 0.1875 0
-0.25 0.1875 0
-0.3125 0.25 0
-0.25 0.25 0
0.375 -0.5 0
0.4375 -0.5 0
0.375 -0.4375 0
0.4375 -0.4375 0
0.4375 -0.5 0
0.5 -0.5 0
0.4375 -0.4375 0
0.5 -0.4375 0
0.25 -0.625 0
0.3125 -0.625 0
0.25 -0.5625 0
0.3125 -0.5625 0
0.3125 -0.625 0
0.375 -0.625 0
0.3125 -0.5625 0
0.375 -0.5625 0
0.25 -0.5625 0
0.3125 -0.5625 0
0.25 -0.5 0
0.3125 -0.5 0
0.375 -0.625 0
0.4375 -0.625 0
0.375 -0.5625 0
0.4375 -0.5625 0
0.4375 -0.625 0
0.5 -0.625 0
0.4375 -0.5625 0
0.5 -0.5625 0
0.375 -0.5625 0
[...]
POINT_DATA 3444
SCALARS U double 1
LOOKUP_TABLE default
0 0 0 9.37239e-05 0 0 9.37239e-05 0.000185696 0 9.37239e-05 0 0.000207755 9.37239e-05 0.000185696 0.000207755 0.000386969 0 0 0.000185696 0.000276065 0 0 0.000276065 0.000348685 0.000185696 0.000276065 0.000386969 0.000495894 0 0.000207755 0 0.000408318 0 0.000408318 0 0.000816197 0.000495894 0.00055705 0.000698224 0.000540264 0.000408318 0.000582824 0.000612257 0.000811106 0.000582824 0.000689855 0.000811106 0.000934572 0.000612257 0.000811106 0.000816197 0.00112178 0.000811106 0.000934572 0.00112178 0.0012767 0.000731313 0.000698224 0.000948573 0.000843928 0.000948573 0.000843928 0.00125991 0.00105253 0.000348685 0.000377367 0.000473593 0.000521984 0.000377367 0.000426822 0.000521984 0.000651986 0.000473593 0.000521984 0.00055705 0.000607216 0.000521984 0.000651986 0.000607216 0.000911996 0.00055705 0.000607216 0.000548657 0.000622635 0.000607216 0.000911996 0.000622635 0.00106862 0.000548657 0.000622635 0.000540264 0.000535901 0.000622635 0.00106862 0.000535901 0.00100044 0.000276065 0.000312375 0.000385979 0.000436037 0.000312375 0.000348685 0.000436037 0.000473593 0.000385979 0.000436037 0.000495894 0.000526472 0.000436037 0.000473593 0.000526472 0.00055705 0 0 0.000174342 0.000198503 0 0 0.000198503 0.000212123 0.000174342 0.000198503 0.000348685 0.000377367 0.000198503 0.000212123 0.000377367 0.000426822 0.0012767 0.00125991 0.00168381 0.00163619 0.000386969 0.000441432 0.00051105 0.000570807 0.000441432 0.000495894 0.000570807 0.000597059 0.00051105 0.000570807 0.000689855 0.000731313 0.000570807 0.000597059 0.000731313 0.000698224 0 0 0.000212123 0.000225319 0 0 0.000225319 0.000233398 0.000212123 0.000225319 0.000426822 0.000519422 0.000225319 0.000233398 0.000519422 0.000692367 0.000426822 0.000519422 0.000651986 0.00107261 0 0 0.000233398 0.000226559 0 0 0.000226559 0.000186417 0.000233398 0.000226559 0.000692367 0.000819544 0.000226559 0.000186417 0.000819544 0.000779822 0.000207755 0.000297362 0.000308036 0.000418261 0.000297362 0.000386969 0.000418261 0.00051105 0.000308036 0.000418261 0.000408318 0.000582824 0.000418261 0.00051105 0.000582824 0.000689855 0.000698224 0.000619244 0.000843928 0.000632965 0.000619244 0.000540264 0.000632965 0.000412189 0.000843928 0.000632965 0.00105253 0.000654443 0 0.000723615 0 0.000845925 0.000723615 0.00137313 0.000845925 0.00160011 0 0.000845925 0 0.00089364 0 0 0.000186417 0.000106681 0 0 0.000106681 0 0.000186417 0.000106681 0.000779822 0.00049329 0.000106681 0 0.00049329 0 0 0.000408098 0 0.000571795 0.000408098 0.000816197 0.000571795 0.00108499 0 0.000571795 0 0.000723615 0.000571795 0.00108499 0.000723615 0.00137313 0 0.00089364 0 0.000836679 0 0.000836679 0 0.000651313 0.000836679 0.00158338 0.000651313 0.00123999 0.000535901 0.00100044 0.000336152 0.00062432 0.000336152 0.00062432 0 0 0 0.000651313 0 0.000358217 0.000651313 0.00123999 0.000358217 0.000681938 0 0.000358217 0 0 0.000358217 0.000681938 0 0 0.00185992 0.0020184 0.00202915 0.0022019 0.0020184 0.00210486 0.0022019 0.00229617 0.00202915 0.0022019 0.00216681 0.00235142 0.0022019 0.00229617 0.00235142 0.00245199 0.00160011 0.0019101 0.00166168 0.00199182 0.0019101 0.00216681 0.00199182 0.00225913 0.00166168 0.00199182 0.00168657 0.00202078 0.00199182 0.00225913 0.00202078 0.00229283 0.00216681 0.00235142 0.00225913 0.00245131 0.00235142 0.00245199 0.00245131 0.00255627 0.00225913 0.00245131 0.00229283 0.00248823 0.00131369 0.00105683 0.00146692 0.00117335 0.00105683 0.000744231 0.00117335 0.000820004 0.00146692 0.00117335 0.00161947 0.00129239 0.00117335 0.000820004 0.00129239 0.000900689 0.000934572 0.000964385 0.00110563 0.00111411 0.000964385 0.000948573 0.00111411 0.00110424 0.00110563 0.00111411 0.0012767 0.0012683 0.00111411 0.00110424 0.0012683 0.00125991 0.00112178 0.00119924 0.00128894 0.0014054 0.00119924 0.0012767 0.0014054 0.00148025 0.00128894 0.0014054 0.00147948 0.00160921 0.0014054 0.00148025 0.00160921 0.00168381 0.00147948 0.00160921 0.00167311 0.00181622 0.00160921 0.00168381 0.00181622 0.00189214 0.00167311 0.00181622 0.00185992 0.0020184 0.00181622 0.00189214 0.0020184 0.00210486 0.00168381 0.00166 0.00189214 0.00189981 0.00166 0.00163619 0.00189981 0.00183206 0.00189214 0.00189981 0.00210486 0.00211159 0.00189981 0.00183206 0.00211159 0.00203393 0.000632965 0.000522577 0.000643704 0.000453412 0.000522577 0.000412189 0.000453412 0.000283634 0.000643704 0.000453412 0.000654443 0.000386497 0.000845925 0.00122302 0.000869782 0.00128586 0.00122302 0.00160011 0.00128586 0.00166168 0.000869782 0.00128586 0.00089364 0.0013035 0.00128586 0.00166168 0.0013035 0.00168657 0.000689855 0.000710584 0.000812214 0.000830404 0.000710584 0.000731313 0.000830404 0.000839943 0.000812214 0.000830404 0.000934572 0.000964385 0.000830404 0.000839943 0.000964385 0.000948573 0.000654443 0.000386497 0.000683698 0.000365144 0.000683698 0.000365144 0.000744231 0.000385536 0.000365144 0 0.000385536 0 0.00137313 0.00163923 0.00148662 0.00178925 0.00163923 0.00185992 0.00178925 0.00202915 0.00148662 0.00178925 0.00160011 0.0019101 0.00178925 0.00202915 0.0019101 0.00216681 0.000412189 0.000339781 0.000283634 0.000194739 0.000339781 0.000336152 0.000194739 0.000168076 0.000194739 0.000168076 0 0 0.000744231 0.000385536 0.000820004 0.000422079 0.000385536 0 0.000422079 0 0.000820004 0.000422079 0.000900689 0.000462571 0.000422079 0 0.000462571 0 0.00089364 0.0013035 0.000865159 0.001284 0.0013035 0.00168657 0.001284 0.00165947 0.000865159 0.001284 0.000836679 0.00121003 0.001284 0.00165947 0.00121003 0.00158338 0.000816197 0.00096899 0.000950595 0.00113558 0.00096899 0.00112178 0.00113558 0.00128894 0.000950595 0.00113558 0.00108499 0.00130297 0.00113558 0.00128894 0.00130297 0.00147948 0.00108499 0.00130297 0.00122906 0.00147426 0.00130297 0.00147948 0.00147426 0.00167311 0.00122906 0.00147426 0.00137313 0.00163923 0.00147426 0.00167311 0.00163923 0.00185992 0.00125991 0.00115622 0.00144805 0.00133394 0.00115622 0.00105253 0.00133394 0.00116813 0.00144805 0.00133394 0.00163619 0.00150826 0.00133394 0.00116813 0.00150826 0.00131369 0.000540264 0.000538082 0.000476226 0.000445443 0.000538082 0.000535901 0.000445443 0.000436026 0.000476226 0.000445443 0.000412189 0.000339781 0.000445443 0.000436026 0.000339781 0.000336152 0.00193299 0.00237367 0.00320141 0.00408788 0.00320141 0.00408788 0.00520869 0.00710701 0.00049329 0.000246645 0.000977523 0.000525993 0.000246645 0 0.000525993 0 0.000977523 0.000525993 0.00190697 0.00103433 0.000525993 0 0.00103433 0 0.00105253 0.000853487 0.00116813 0.000952908 0.000853487 0.000654443 0.000952908 0.000683698 0.00116813 0.000952908 0.00131369 0.00105683 0.000952908 0.000683698 0.00105683 0.000744231 0.00103433 0 0.00196894 0 0.00196894 0 0.00404306 0 0.00163619 0.00150826 0.00183206 0.00168951 0.00150826 0.00131369 0.00168951 0.00146692 0.00183206 0.00168951 0.00203393 0.00186923 0.00168951 0.00146692 0.00186923 0.00161947 0.00202272 0.00324097 0.00248968 0.0041559 0.00324097 0.00520869 0.0041559 0.00713653 0.000651986 0.000862298 0.000781991 0.00105941 0.000862298 0.00107261 0.00105941 0.0015315 0.000781991 0.00105941 0.000911996 0.00130251 0.00107261 0.00148009 0.0015315 0.00227198 0.00148009 0.00193299 0.00227198 0.00320141 0.0015315 0.00227198 0.00202272 0.00324097 0.00227198 0.00320141 0.00324097 0.00520869 0.000519422 0.000605895 0.000796016 0.000947487 0.000605895 0.000692367 0.000947487 0.00115408 0.000796016 0.000947487 0.00107261 0.00148009 0.000947487 0.00115408 0.00148009 0.00193299 0.00107377 0.00199785 0 0 0.00199785 0.00406364 0 0 0.000692367 0.000755956 0.00115408 0.00135386 0.000755956 0.000819544 0.00135386 0.00149986 0.00115408 0.00135386 0.00193299 0.00237367 0.00135386 0.00149986 0.00237367 0.00271811 0.000819544 0.000799683 0.00149986 0.00155615 0.000799683 0.000779822 0.00155615 0.00149261 0.00149986 0.00155615 0.00271811 0.00285927 0.00155615 0.00149261 0.00285927 0.00278941 0.000779822 0.000636556 0.00149261 0.00130752 0.000636556 0.00049329 0.00130752 0.000977523 0.00149261 0.00130752 0.00278941 0.00248534 0.00130752 0.000977523 0.00248534 0.00190697 0.000911996 0.00130251 0.000990309 0.00152703 0.00130251 0.00202272 0.00152703 0.00248968 0.000990309 0.00152703 0.00106862 0.00168367 0.00152703 0.00248968 0.00168367 0.00284893 0.00161947 0.00129239 0.00176122 0.0014035 0.00129239 0.000900689 0.0014035 0.000976927 0.00176122 0.0014035 0.00187787 0.00149577 0.0014035 0.000976927 0.00149577 0.00104044 0.000900689 0.000462571 0.000976927 0.000501286 0.000462571 0 0.000501286 0 0.000976927 0.000501286 0.00104044 0.000533703 0.000501286 0 0.000533703 0 0.00149577 0.00104044 0.00155702 0.00108398 0.00155702 0.00108398 0.0015824 0.00109992 0.00104044 0.000533703 0.00108398 0.000556096 0.000533703 0 0.000556096 0 0.00108398 0.000556096 0.00109992 0.000564371 0.000556096 0 0.000564371 0 0.00106862 0.00168367 0.00103453 0.00173822 0.00168367 0.00284893 0.00173822 0.00299224 0.00103453 0.00173822 0.00100044 0.00165888 0.00173822 0.00299224 0.00165888 0.00291348 0.00210486 0.00211159 0.00229617 0.00230326 0.00211159 0.00203393 0.00230326 0.00221692 0.00229617 0.00230326 0.00245199 0.00245939 0.00230326 0.00221692 0.00245939 0.00236624 0.00203393 0.00186923 0.00221692 0.00203506 0.00186923 0.00161947 0.00203506 0.00176122 0.00221692 0.00203506 0.00236624 0.00217159 0.00203506 0.00176122 0.00217159 0.00187787 0.00245199 0.00245939 0.00255627 0.00256212 0.00255627 0.00256212 0.00259498 0.00260358 0.000412728 0 0.000327089 0 0.000327089 0 0.000226286 0 0.000409579 0.000325869 0 0 0.000325869 0.000225993 0 0 0.000115872 0 0 0 0.00100044 0.00165888 0.000812381 0.00144595 0.00165888 0.00291348 0.00144595 0.0025891 0.000812381 0.00144595 0.00062432 0.00107688 0.00144595 0.0025891 0.00107688 0.00198228 0.00062432 0.00107688 0.00031216 0.000577673 0.00107688 0.00198228 0.000577673 0.00107377 0.00031216 0.000577673 0 0 0.000577673 0.00107377 0 0 0.0143984 0.0133935 0.0153336 0.0142369 0.0133935 0.0111251 0.0142369 0.0118044 0.0153336 0.0142369 0.0153221 0.0142373 0.0142369 0.0118044 0.0142373 0.0118082 0.00168657 0.00202078 0.00165947 0.00198914 0.00202078 0.00229283 0.00198914 0.00225677 0.00165947 0.00198914 0.00158338 0.00188642 0.00198914 0.00225677 0.00188642 0.00214152 0.00229283 0.00248823 0.00225677 0.00244869 0.00248823 0.00259498 0.00244869 0.00255617 0.00158338 0.00188642 0.00141168 0.00171457 0.00188642 0.00214152 0.00171457 0.00194659 0.00141168 0.00171457 0.00123999 0.00147059 0.00171457 0.00194659 0.00147059 0.00167277 0.0144177 0.0153409 0.0134133 0.0142469 0.0153409 0.0153221 0.0142469 0.0142409 0.0134133 0.0142469 0.011141 0.0118132 0.0142469 0.0142409 0.0118132 0.0118123 0.0144411 0.0143984 0.0153803 0.0153336 0.014454 0.0153803 0.0144177 0.0153409 0.0153803 0.0153336 0.0153409 0.0153221 0.00123999 0.00147059 0.000960962 0.00116752 0.00147059 0.00167277 0.00116752 0.00132579 0.000960962 0.00116752 0.000681938 0.000808582 0.00116752 0.00132579 0.000808582 0.000919642 0.00167277 0.00181595 0.00132579 0.00144179 0.00132579 0.00144179 0.000919642 0.000999798 0.00144179 0.00150342 0.000999798 0.00104333 0.000681938 0.000808582 0.000340969 0.000414631 0.000808582 0.000919642 0.000414631 0.000470865 0.000340969 0.000414631 0 0 0.000414631 0.000470865 0 0 0.000919642 0.000999798 0.000470865 0.000512075 0.000999798 0.00104333 0.000512075 0.000534704 0.000470865 0.000512075 0 0 0.000512075 0.000534704 0 0 0.00260358 0.00250313 0.00256373 0.00246626 0.00255617 0.00256373 0.00242596 0.0024354 0.00256373 0.00246626 0.0024354 0.00234324 0.0019861 0.0015824 0.00195571 0.00155691 0.000564371 0 0.000555676 0 0.000555676 0 0.000528257 0 0.000528257 0 0.000480225 0 0.000480225 0 0.000412728 0 0.000534704 0.000536665 0 0 0.000536665 0.000516694 0 0 0.000516694 0.000473781 0 0 0.000473781 0.000409579 0 0 0.00185494 0.00167565 0.00178072 0.0016102 0.00167565 0.00147314 0.0016102 0.00141947 0.00178072 0.0016102 0.00168665 0.00152284 0.0016102 0.00141947 0.00152284 0.00134379 0.00147314 0.00126046 0.00141947 0.00121061 0.00126046 0.00102776 0.00121061 0.00098625 0.00141947 0.00121061 0.00134379 0.001143 0.00121061 0.00098625 0.001143 0.000933398 0.00168665 0.00152284 0.00157784 0.00142642 0.00152284 0.00134379 0.00142642 0.00125829 0.00157784 0.00142642 0.00145029 0.00131 0.00142642 0.00125829 0.00131 0.00115028 0.00134379 0.001143 0.00125829 0.00107188 0.001143 0.000933398 0.00107188 0.000874494 0.00125829 0.00107188 0.00115028 0.00098513 0.00107188 0.000874494 0.00098513 0.000802295 0.00182816 0.00176345 0.00164816 0.00159115 0.00176345 0.00167669 0.00159115 0.00151054 0.00164816 0.00159115 0.00144645 0.00140006 0.00159115 0.00151054 0.00140006 0.00133062 0.00167669 0.00157366 0.00151054 0.00141955 0.00157366 0.00145029 0.00141955 0.00130718 0.00151054 0.00141955 0.00133062 0.00125002 0.00141955 0.00130718 0.00125002 0.00114574 0.00144645 0.00140006 0.00123578 0.00119236 0.00140006 0.00133062 0.00119236 0.0011302 0.00123578 0.00119236 0.00100618 0.000970288 0.00119236 0.0011302 0.000970288 0.000921909 0.00133062 0.00125002 0.0011302 0.00106335 0.00125002 0.00114574 0.00106335 0.000979871 0.0011302 0.00106335 0.000921909 0.000866556 0.00106335 0.000979871 0.000866556 0.000797121 0.00237367 0.00254589 0.00323078 0.00345301 0.00254589 0.00271811 0.00345301 0.00366423 0.00323078 0.00345301 0.00408788 0.00449394 0.00345301 0.00366423 0.00449394 0.00477795 0.00408788 0.00449394 0.00559745 0.0059842 0.00449394 0.00477795 0.0059842 0.00636632 0.00559745 0.0059842 0.00710701 0.00775198 0.0059842 0.00636632 0.00775198 0.00825082 0.00271811 0.00278869 0.00366423 0.00379428 0.00278869 0.00285927 0.00379428 0.00387081 0.00366423 0.00379428 0.00477795 0.00494967 0.00379428 0.00387081 0.00494967 0.00506084 0.00285927 0.00282434 0.00387081 0.0038639 0.00282434 0.00278941 0.0038639 0.00379836 0.00387081 0.0038639 0.00506084 0.00505878 0.0038639 0.00379836 0.00505878 0.00498772 0.00477795 0.00494967 0.00636632 0.00659517 0.00494967 0.00506084 0.00659517 0.00674656 0.00636632 0.00659517 0.00825082 0.00854074 0.00659517 0.00674656 0.00854074 0.00873507 0.00506084 0.00505878 0.00674656 0.00675314 0.00505878 0.00498772 0.00675314 0.00667505 0.00674656 0.00675314 0.00873507 0.00875115 0.00675314 0.00667505 0.00875115 0.00866593 0.00278941 0.00263737 0.00379836 0.00363944 0.00263737 0.00248534 0.00363944 0.0034151 0.00379836 0.00363944 0.00498772 0.00479228 0.00363944 0.0034151 0.00479228 0.00451776 0.00248534 0.00219616 0.0034151 0.00307502 0.00219616 0.00190697 0.00307502 0.00266102 0.0034151 0.00307502 0.00451776 0.00408666 0.00307502 0.00266102 0.00408666 0.00356723 0.00498772 0.00479228 0.00667505 0.00644094 0.00479228 0.00451776 0.00644094 0.00610958 0.00667505 0.00644094 0.00866593 0.0083916 0.00644094 0.00610958 0.0083916 0.00800077 0.00451776 0.00408666 0.00610958 0.00557303 0.00408666 0.00356723 0.00557303 0.00492382 0.00610958 0.00557303 0.00800077 0.00735505 0.00557303 0.00492382 0.00735505 0.00656894 0.00190697 0.00147065 0.00266102 0.00211007 0.00147065 0.00103433 0.00211007 0.00150163 0.00266102 0.00211007 0.00356723 0.00285267 0.00211007 0.00150163 0.00285267 0.00196894 0.00356723 0.00285267 0.00492382 0.00400472 0.00285267 0.00196894 0.00400472 0.003006 0.00492382 0.00400472 0.00656894 0.00541639 0.00400472 0.003006 0.00541639 0.00404306 0.00248968 0.00332279 0.0026693 0.00355322 0.00332279 0.0041559 0.00355322 0.00457154 0.0026693 0.00355322 0.00284893 0.00377157 0.00355322 0.00457154 0.00377157 0.00486335 0.0041559 0.00564622 0.00457154 0.00604254 0.00564622 0.00713653 0.00604254 0.00779182 0.00457154 0.00604254 0.00486335 0.00643298 0.00604254 0.00779182 0.00643298 0.00829961 0.00284893 0.00377157 0.00292058 0.00390442 0.00377157 0.00486335 0.00390442 0.00503879 0.00292058 0.00390442 0.00299224 0.00398252 0.00390442 0.00503879 0.00398252 0.00515256 0.00486335 0.00643298 0.00503879 0.00666635 0.00643298 0.00829961 0.00666635 0.00859479 0.00503879 0.00666635 0.00515256 0.0068212 0.00666635 0.00859479 0.0068212 0.0087934 0.00299224 0.00398252 0.00295286 0.00397288 0.00398252 0.00515256 0.00397288 0.00514919 0.00295286 0.00397288 0.00291348 0.00390366 0.00397288 0.00514919 0.00390366 0.00507562 0.00515256 0.0068212 0.00514919 0.0068276 0.0068212 0.0087934 0.0068276 0.00881034 0.00514919 0.0068276 0.00507562 0.00674822 0.0068276 0.00881034 0.00674822 0.00872503 0.00145029 0.00131 0.00130718 0.00118267 0.00131 0.00115028 0.00118267 0.00104243 0.00130718 0.00118267 0.00114574 0.00104059 0.00118267 0.00104243 0.00104059 0.000915785 0.00115028 0.00098513 0.00104243 0.000885866 0.00098513 0.000802295 0.000885866 0.000724184 0.00104243 0.000885866 0.000915785 0.000779578 0.000885866 0.000724184 0.000779578 0.000636421 0.00291348 0.00390366 0.00275129 0.00373752 0.00390366 0.00507562 0.00373752 0.0048745 0.00275129 0.00373752 0.0025891 0.0035041 0.00373752 0.0048745 0.0035041 0.00459338 0.00114574 0.00104059 0.000979871 0.000883048 0.00104059 0.000915785 0.000883048 0.000778471 0.000979871 0.000883048 0.000797121 0.000721081 0.000883048 0.000778471 0.000721081 0.000634814 0.000915785 0.000779578 0.000778471 0.000664198 0.000779578 0.000636421 0.000664198 0.000541652 0.000778471 0.000664198 0.000634814 0.000541051 0.000664198 0.000541652 0.000541051 0.000441211 0.000802295 0.000609435 0.000724184 0.000549947 0.000609435 0.000412728 0.000549947 0.000369908 0.000724184 0.000549947 0.000636421 0.000483393 0.000549947 0.000369908 0.000483393 0.000327089 0.00507562 0.00674822 0.0048745 0.00650964 0.00674822 0.00872503 0.00650964 0.00844758 0.0048745 0.00650964 0.00459338 0.00617295 0.00650964 0.00844758 0.00617295 0.00805279 0.000636421 0.000483393 0.000541652 0.000411597 0.000483393 0.000327089 0.000411597 0.000276687 0.000541652 0.000411597 0.000441211 0.000335402 0.000411597 0.000276687 0.000335402 0.000226286 0.0025891 0.0035041 0.00228569 0.00315249 0.0035041 0.00459338 0.00315249 0.00415211 0.00228569 0.00315249 0.00198228 0.00272616 0.00315249 0.00415211 0.00272616 0.00362177 0.00459338 0.00617295 0.00415211 0.00562845 0.00617295 0.00805279 0.00562845 0.00740072 0.00415211 0.00562845 0.00362177 0.00497064 0.00562845 0.00740072 0.00497064 0.00660763 0.000797121 0.000721081 0.00060499 0.000547138 0.000721081 0.000634814 0.000547138 0.000481771 0.00060499 0.000547138 0.000409579 0.000367724 0.000547138 0.000481771 0.000367724 0.000325869 0.00198228 0.00272616 0.00152802 0.00215948 0.00272616 0.00362177 0.00215948 0.0028947 0.00152802 0.00215948 0.00107377 0.00153581 0.00215948 0.0028947 0.00153581 0.00199785 0.000634814 0.000541051 0.000481771 0.000410802 0.000541051 0.000441211 0.000410802 0.000335125 0.000481771 0.000410802 0.000325869 0.000275931 0.000410802 0.000335125 0.000275931 0.000225993 0.00362177 0.00497064 0.0028947 0.00404087 0.00497064 0.00660763 0.00404087 0.00544619 0.0028947 0.00404087 0.00199785 0.00303074 0.00404087 0.00544619 0.00303074 0.00406364 0.00245131 0.00250379 0.00246977 0.00254017 0.00250379 0.00255627 0.00254017 0.00257562 0.00246977 0.00254017 0.00248823 0.0025416 0.00254017 0.00257562 0.0025416 0.00259498 0.00520869 0.00615785 0.00617261 0.00758102 0.00615785 0.00710701 0.00758102 0.00873232 0.00617261 0.00758102 0.00713653 0.00874642 0.00758102 0.00873232 0.00874642 0.0100829 0.000441211 0.000335402 0.000335125 0.000254043 0.000335402 0.000226286 0.000254043 0.000171849 0.000335125 0.000254043 0.000225993 0.000171761 0.000254043 0.000171849 0.000171761 0.000115872 0.00710701 0.00775198 0.00873232 0.0094951 0.00775198 0.00825082 0.0094951 0.0101203 0.00873232 0.0094951 0.0100829 0.010948 0.0094951 0.0101203 0.010948 0.0116734 0.00713653 0.00874642 0.00779182 0.0095198 0.00874642 0.0100829 0.0095198 0.0109586 0.00779182 0.0095198 0.00829961 0.0101545 0.0095198 0.0109586 0.0101545 0.0116937 0.0100829 0.010948 0.0109586 0.0119123 0.010948 0.0116734 0.0119123 0.0127123 0.0109586 0.0119123 0.0116937 0.0127221 0.0119123 0.0127123 0.0127221 0.0135862 0.000226286 0.000113143 0.000171849 8.67366e-05 0.000113143 0 8.