# vtk DataFile Version 3.0
#This file was generated by the deal.II library on 2021/4/23 at 0:45:49
ASCII
DATASET UNSTRUCTURED_GRID

FIELD FieldData 2
CYCLE 1 1 int
241
TIME 1 1 double
0.482
POINTS 7164 double
-1 -1 0
-0.75 -1 0
-1 -0.75 0
-0.75 -0.75 0
-0.75 -1 0
-0.5 -1 0
-0.75 -0.75 0
-0.5 -0.75 0
-1 -0.75 0
-0.75 -0.75 0
-1 -0.5 0
-0.75 -0.5 0
-0.75 -0.75 0
-0.5 -0.75 0
-0.75 -0.5 0
-0.5 -0.5 0
-0.75 -0.5 0
-0.5 -0.5 0
-0.75 -0.25 0
-0.5 -0.25 0
-1 -0.25 0
-0.75 -0.25 0
-1 0 0
-0.75 0 0
-1 0.75 0
-0.75 0.75 0
-1 1 0
-0.75 1 0
-0.25 0.75 0
0 0.75 0
-0.25 1 0
0 1 0
-0.25 -0.75 0
-0.125 -0.75 0
-0.25 -0.625 0
-0.125 -0.625 0
-0.25 -0.625 0
-0.125 -0.625 0
-0.25 -0.5 0
-0.125 -0.5 0
-0.75 -0.25 0
-0.625 -0.25 0
-0.75 -0.125 0
-0.625 -0.125 0
-0.625 -0.25 0
-0.5 -0.25 0
-0.625 -0.125 0
-0.5 -0.125 0
-0.75 -0.125 0
-0.625 -0.125 0
-0.75 0 0
-0.625 0 0
-0.625 -0.125 0
-0.5 -0.125 0
-0.625 0 0
-0.5 0 0
-0.25 -0.5 0
-0.125 -0.5 0
-0.25 -0.375 0
-0.125 -0.375 0
-0.25 -0.375 0
-0.125 -0.375 0
-0.25 -0.25 0
-0.125 -0.25 0
0 -1 0
0.125 -1 0
0 -0.875 0
0.125 -0.875 0
0.125 -1 0
0.25 -1 0
0.125 -0.875 0
0.25 -0.875 0
0 -0.875 0
0.125 -0.875 0
0 -0.75 0
0.125 -0.75 0
0.125 -0.875 0
0.25 -0.875 0
0.125 -0.75 0
0.25 -0.75 0
-0.5 -0.75 0
-0.375 -0.75 0
-0.5 -0.625 0
-0.375 -0.625 0
-0.375 -0.75 0
-0.25 -0.75 0
-0.375 -0.625 0
-0.25 -0.625 0
-0.5 -0.625 0
-0.375 -0.625 0
-0.5 -0.5 0
-0.375 -0.5 0
-0.375 -0.625 0
-0.25 -0.625 0
-0.375 -0.5 0
-0.25 -0.5 0
-0.5 -0.25 0
-0.375 -0.25 0
-0.5 -0.125 0
-0.375 -0.125 0
-0.375 -0.25 0
-0.25 -0.25 0
-0.375 -0.125 0
-0.25 -0.125 0
-0.5 -0.125 0
-0.375 -0.125 0
-0.5 0 0
-0.375 0 0
-0.375 -0.125 0
-0.25 -0.125 0
-0.375 0 0
-0.25 0 0
-0.75 0 0
-0.625 0 0
-0.75 0.125 0
-0.625 0.125 0
-0.75 0.125 0
-0.625 0.125 0
-0.75 0.25 0
-0.625 0.25 0
-0.5 -1 0
-0.375 -1 0
-0.5 -0.875 0
-0.375 -0.875 0
-0.375 -1 0
-0.25 -1 0
-0.375 -0.875 0
-0.25 -0.875 0
-0.5 -0.875 0
-0.375 -0.875 0
-0.5 -0.75 0
-0.375 -0.75 0
-0.375 -0.875 0
-0.25 -0.875 0
-0.375 -0.75 0
-0.25 -0.75 0
-0.5 0 0
-0.375 0 0
-0.5 0.125 0
-0.375 0.125 0
-0.375 0 0
-0.25 0 0
-0.375 0.125 0
-0.25 0.125 0
-0.5 0.125 0
-0.375 0.125 0
-0.5 0.25 0
-0.375 0.25 0
-0.375 0.125 0
-0.25 0.125 0
-0.375 0.25 0
-0.25 0.25 0
-0.5 -0.5 0
-0.375 -0.5 0
-0.5 -0.375 0
-0.375 -0.375 0
-0.375 -0.5 0
-0.25 -0.5 0
-0.375 -0.375 0
-0.25 -0.375 0
-0.5 -0.375 0
-0.375 -0.375 0
-0.5 -0.25 0
-0.375 -0.25 0
-0.375 -0.375 0
-0.25 -0.375 0
-0.375 -0.25 0
-0.25 -0.25 0
0.25 -1 0
0.375 -1 0
0.25 -0.875 0
0.375 -0.875 0
0.375 -1 0
0.5 -1 0
0.375 -0.875 0
0.5 -0.875 0
0.25 -0.875 0
0.375 -0.875 0
0.25 -0.75 0
0.375 -0.75 0
-1 0 0
-0.875 0 0
-1 0.125 0
-0.875 0.125 0
-0.875 0 0
-0.75 0 0
-0.875 0.125 0
-0.75 0.125 0
-1 0.125 0
-0.875 0.125 0
-1 0.25 0
-0.875 0.25 0
-0.875 0.125 0
-0.75 0.125 0
-0.875 0.25 0
-0.75 0.25 0
-0.25 -0.25 0
-0.125 -0.25 0
-0.25 -0.125 0
-0.125 -0.125 0
-1 0.25 0
-0.875 0.25 0
-1 0.375 0
-0.875 0.375 0
-1 0.375 0
-0.875 0.375 0
-1 0.5 0
-0.875 0.5 0
0.875 -1 0
1 -1 0
0.875 -0.875 0
1 -0.875 0
-0.75 0.25 0
-0.625 0.25 0
-0.75 0.375 0
-0.625 0.375 0
-0.625 0.25 0
-0.5 0.25 0
-0.625 0.375 0
-0.5 0.375 0
-0.75 0.375 0
-0.625 0.375 0
-0.75 0.5 0
-0.625 0.5 0
-0.25 0.125 0
-0.125 0.125 0
-0.25 0.25 0
-0.125 0.25 0
-1 0.5 0
-0.875 0.5 0
-1 0.625 0
-0.875 0.625 0
-1 0.625 0
-0.875 0.625 0
-1 0.75 0
-0.875 0.75 0
-0.875 0.625 0
-0.75 0.625 0
-0.875 0.75 0
-0.75 0.75 0
-1 -0.5 0
-0.875 -0.5 0
-1 -0.375 0
-0.875 -0.375 0
-0.875 -0.5 0
-0.75 -0.5 0
-0.875 -0.375 0
-0.75 -0.375 0
-1 -0.375 0
-0.875 -0.375 0
-1 -0.25 0
-0.875 -0.25 0
-0.875 -0.375 0
-0.75 -0.375 0
-0.875 -0.25 0
-0.75 -0.25 0
-0.25 0.25 0
-0.125 0.25 0
-0.25 0.375 0
-0.125 0.375 0
-0.125 0.25 0
0 0.25 0
-0.125 0.375 0
0 0.375 0
-0.125 0.375 0
0 0.375 0
-0.125 0.5 0
0 0.5 0
-0.25 -1 0
-0.125 -1 0
-0.25 -0.875 0
-0.125 -0.875 0
-0.125 -1 0
0 -1 0
-0.125 -0.875 0
0 -0.875 0
-0.5 0.25 0
-0.375 0.25 0
-0.5 0.375 0
-0.375 0.375 0
-0.375 0.25 0
-0.25 0.25 0
-0.375 0.375 0
-0.25 0.375 0
-0.75 0.5 0
-0.625 0.5 0
-0.75 0.625 0
-0.625 0.625 0
-0.75 0.625 0
-0.625 0.625 0
-0.75 0.75 0
-0.625 0.75 0
-0.75 0.75 0
-0.625 0.75 0
-0.75 0.875 0
-0.625 0.875 0
-0.75 0.875 0
-0.625 0.875 0
-0.75 1 0
-0.625 1 0
-0.625 0.875 0
-0.5 0.875 0
-0.625 1 0
-0.5 1 0
-0.125 0.5 0
0 0.5 0
-0.125 0.625 0
0 0.625 0
-0.25 0.625 0
-0.125 0.625 0
-0.25 0.75 0
-0.125 0.75 0
-0.125 0.625 0
0 0.625 0
-0.125 0.75 0
0 0.75 0
-0.375 0.75 0
-0.25 0.75 0
-0.375 0.875 0
-0.25 0.875 0
-0.5 0.875 0
-0.375 0.875 0
-0.5 1 0
-0.375 1 0
-0.375 0.875 0
-0.25 0.875 0
-0.375 1 0
-0.25 1 0
0.125 -0.4375 0
0.1875 -0.4375 0
0.125 -0.375 0
0.1875 -0.375 0
0.125 -0.3125 0
0.1875 -0.3125 0
0.125 -0.25 0
0.1875 -0.25 0
0.125 -0.75 0
0.1875 -0.75 0
0.125 -0.6875 0
0.1875 -0.6875 0
0.1875 -0.75 0
0.25 -0.75 0
0.1875 -0.6875 0
0.25 -0.6875 0
0.125 -0.6875 0
0.1875 -0.6875 0
0.125 -0.625 0
0.1875 -0.625 0
0.1875 -0.6875 0
0.25 -0.6875 0
0.1875 -0.625 0
0.25 -0.625 0
0.5 -0.8125 0
0.5625 -0.8125 0
0.5 -0.75 0
0.5625 -0.75 0
0.5625 -0.8125 0
0.625 -0.8125 0
0.5625 -0.75 0
0.625 -0.75 0
0.625 -0.875 0
0.6875 -0.875 0
0.625 -0.8125 0
0.6875 -0.8125 0
0.6875 -0.875 0
0.75 -0.875 0
0.6875 -0.8125 0
0.75 -0.8125 0
0.625 -0.8125 0
0.6875 -0.8125 0
0.625 -0.75 0
0.6875 -0.75 0
0.6875 -0.8125 0
0.75 -0.8125 0
0.6875 -0.75 0
0.75 -0.75 0
0.75 -0.875 0
0.8125 -0.875 0
0.75 -0.8125 0
0.8125 -0.8125 0
0.75 -0.8125 0
0.8125 -0.8125 0
0.75 -0.75 0
0.8125 -0.75 0
0.8125 -0.8125 0
0.875 -0.8125 0
0.8125 -0.75 0
0.875 -0.75 0
0.125 -0.25 0
0.1875 -0.25 0
0.125 -0.1875 0
0.1875 -0.1875 0
0.125 -0.1875 0
0.1875 -0.1875 0
0.125 -0.125 0
0.1875 -0.125 0
0.1875 -0.1875 0
0.25 -0.1875 0
0.1875 -0.125 0
0.25 -0.125 0
0.0625 -0.625 0
0.125 -0.625 0
0.0625 -0.5625 0
0.125 -0.5625 0
0 -0.5625 0
0.0625 -0.5625 0
0 -0.5 0
0.0625 -0.5 0
0.0625 -0.5625 0
0.125 -0.5625 0
0.0625 -0.5 0
0.125 -0.5 0
0.125 -0.625 0
0.1875 -0.625 0
0.125 -0.5625 0
0.1875 -0.5625 0
0 -0.5 0
0.0625 -0.5 0
0 -0.4375 0
0.0625 -0.4375 0
0.0625 -0.5 0
0.125 -0.5 0
0.0625 -0.4375 0
0.125 -0.4375 0
0 -0.4375 0
0.0625 -0.4375 0
0 -0.375 0
0.0625 -0.375 0
0.0625 -0.4375 0
0.125 -0.4375 0
0.0625 -0.375 0
0.125 -0.375 0
-0.125 -0.5 0
-0.0625 -0.5 0
-0.125 -0.4375 0
-0.0625 -0.4375 0
-0.125 -0.4375 0
-0.0625 -0.4375 0
-0.125 -0.375 0
-0.0625 -0.375 0
-0.0625 -0.4375 0
0 -0.4375 0
-0.0625 -0.375 0
0 -0.375 0
-0.125 -0.375 0
-0.0625 -0.375 0
-0.125 -0.3125 0
-0.0625 -0.3125 0
-0.0625 -0.375 0
0 -0.375 0
-0.0625 -0.3125 0
0 -0.3125 0
-0.125 -0.3125 0
-0.0625 -0.3125 0
-0.125 -0.25 0
-0.0625 -0.25 0
-0.0625 -0.3125 0
0 -0.3125 0
-0.0625 -0.25 0
0 -0.25 0
-0.625 0 0
-0.5625 0 0
-0.625 0.0625 0
-0.5625 0.0625 0
-0.5625 0 0
-0.5 0 0
-0.5625 0.0625 0
-0.5 0.0625 0
-0.625 0.0625 0
-0.5625 0.0625 0
-0.625 0.125 0
-0.5625 0.125 0
-0.5625 0.0625 0
-0.5 0.0625 0
-0.5625 0.125 0
-0.5 0.125 0
-0.125 -0.625 0
-0.0625 -0.625 0
-0.125 -0.5625 0
-0.0625 -0.5625 0
-0.0625 -0.625 0
0 -0.625 0
-0.0625 -0.5625 0
0 -0.5625 0
-0.125 -0.5625 0
-0.0625 -0.5625 0
-0.125 -0.5 0
-0.0625 -0.5 0
-0.0625 -0.5625 0
0 -0.5625 0
-0.0625 -0.5 0
0 -0.5 0
-0.125 -0.25 0
-0.0625 -0.25 0
-0.125 -0.1875 0
-0.0625 -0.1875 0
-0.0625 -0.25 0
0 -0.25 0
-0.0625 -0.1875 0
0 -0.1875 0
-0.125 -0.1875 0
-0.0625 -0.1875 0
-0.125 -0.125 0
-0.0625 -0.125 0
-0.0625 -0.1875 0
0 -0.1875 0
-0.0625 -0.125 0
0 -0.125 0
0.375 -0.875 0
0.4375 -0.875 0
0.375 -0.8125 0
0.4375 -0.8125 0
0.4375 -0.875 0
0.5 -0.875 0
0.4375 -0.8125 0
0.5 -0.8125 0
0.375 -0.8125 0
0.4375 -0.8125 0
0.375 -0.75 0
0.4375 -0.75 0
0.25 -0.75 0
0.3125 -0.75 0
0.25 -0.6875 0
0.3125 -0.6875 0
0.3125 -0.75 0
0.375 -0.75 0
0.3125 -0.6875 0
0.375 -0.6875 0
0.3125 -0.6875 0
0.375 -0.6875 0
0.3125 -0.625 0
0.375 -0.625 0
0.5 -1 0
0.5625 -1 0
0.5 -0.9375 0
0.5625 -0.9375 0
0.5625 -1 0
0.625 -1 0
0.5625 -0.9375 0
0.625 -0.9375 0
0.5 -0.9375 0
0.5625 -0.9375 0
0.5 -0.875 0
0.5625 -0.875 0
0.5625 -0.9375 0
0.625 -0.9375 0
0.5625 -0.875 0
0.625 -0.875 0
-0.125 -0.125 0
-0.0625 -0.125 0
-0.125 -0.0625 0
-0.0625 -0.0625 0
-0.0625 -0.125 0
0 -0.125 0
-0.0625 -0.0625 0
0 -0.0625 0
0.75 -1 0
0.8125 -1 0
0.75 -0.9375 0
0.8125 -0.9375 0
0.8125 -1 0
0.875 -1 0
0.8125 -0.9375 0
0.875 -0.9375 0
0.75 -0.9375 0
0.8125 -0.9375 0
0.75 -0.875 0
0.8125 -0.875 0
0.8125 -0.9375 0
0.875 -0.9375 0
0.8125 -0.875 0
0.875 -0.875 0
0.875 -0.875 0
0.9375 -0.875 0
0.875 -0.8125 0
0.9375 -0.8125 0
0.9375 -0.875 0
1 -0.875 0
0.9375 -0.8125 0
1 -0.8125 0
0.9375 -0.8125 0
1 -0.8125 0
0.9375 -0.75 0
1 -0.75 0
-0.625 0.125 0
-0.5625 0.125 0
-0.625 0.1875 0
-0.5625 0.1875 0
-0.5625 0.125 0
-0.5 0.125 0
-0.5625 0.1875 0
-0.5 0.1875 0
-0.625 0.1875 0
-0.5625 0.1875 0
-0.625 0.25 0
-0.5625 0.25 0
-0.5625 0.1875 0
-0.5 0.1875 0
-0.5625 0.25 0
-0.5 0.25 0
0 -0.75 0
0.0625 -0.75 0
0 -0.6875 0
0.0625 -0.6875 0
0.0625 -0.75 0
0.125 -0.75 0
0.0625 -0.6875 0
0.125 -0.6875 0
0 -0.6875 0
0.0625 -0.6875 0
0 -0.625 0
0.0625 -0.625 0
0.0625 -0.6875 0
0.125 -0.6875 0
0.0625 -0.625 0
0.125 -0.625 0
-0.0625 0.0625 0
0 0.0625 0
-0.0625 0.125 0
0 0.125 0
0.0625 -0.125 0
0.125 -0.125 0
0.0625 -0.0625 0
0.125 -0.0625 0
0.0625 -0.0625 0
0.125 -0.0625 0
0.0625 0 0
0.125 0 0
0.125 -0.0625 0
0.1875 -0.0625 0
0.125 0 0
0.1875 0 0
0.1875 -0.0625 0
0.25 -0.0625 0
0.1875 0 0
0.25 0 0
-0.875 0.25 0
-0.8125 0.25 0
-0.875 0.3125 0
-0.8125 0.3125 0
-0.8125 0.25 0
-0.75 0.25 0
-0.8125 0.3125 0
-0.75 0.3125 0
-0.875 0.3125 0
-0.8125 0.3125 0
-0.875 0.375 0
-0.8125 0.375 0
-0.8125 0.3125 0
-0.75 0.3125 0
-0.8125 0.375 0
-0.75 0.375 0
-0.125 -0.75 0
-0.0625 -0.75 0
-0.125 -0.6875 0
-0.0625 -0.6875 0
-0.0625 -0.75 0
0 -0.75 0
-0.0625 -0.6875 0
0 -0.6875 0
-0.125 -0.6875 0
-0.0625 -0.6875 0
-0.125 -0.625 0
-0.0625 -0.625 0
-0.875 0.375 0
-0.8125 0.375 0
-0.875 0.4375 0
-0.8125 0.4375 0
-0.8125 0.375 0
-0.75 0.375 0
-0.8125 0.4375 0
-0.75 0.4375 0
-0.875 0.4375 0
-0.8125 0.4375 0
-0.875 0.5 0
-0.8125 0.5 0
-0.8125 0.4375 0
-0.75 0.4375 0
-0.8125 0.5 0
-0.75 0.5 0
-0.625 0.375 0
-0.5625 0.375 0
-0.625 0.4375 0
-0.5625 0.4375 0
-0.5625 0.375 0
-0.5 0.375 0
-0.5625 0.4375 0
-0.5 0.4375 0
[...]
POINT_DATA 7164
SCALARS U double 1
LOOKUP_TABLE default
0 0 0 9.64034e-05 0 0 9.64034e-05 0.000186463 0 9.64034e-05 0 0.000208133 9.64034e-05 0.000186463 0.000208133 0.000377512 0.000208133 0.000377512 0.000346473 0.00056981 0 0.000346473 0 0.000499998 0 0.000379453 0 0 0.000390423 0 0 0 0.000333301 0.000493598 0.000485792 0.000711131 0.000485792 0.000711131 0.000609372 0.000872421 0.000346473 0.000458142 0.000423235 0.000571859 0.000458142 0.00056981 0.000571859 0.000662113 0.000423235 0.000571859 0.000499998 0.000669163 0.000571859 0.000662113 0.000669163 0.000755582 0.000609372 0.000872421 0.000687491 0.000936386 0.000687491 0.000936386 0.000712186 0.000874941 0 0 0.000382698 0.000586081 0 0 0.000586081 0.000853604 0.000382698 0.000586081 0.000761024 0.00116447 0.000586081 0.000853604 0.00116447 0.00171208 0.000186463 0.000243529 0.000281987 0.000361265 0.000243529 0.000333301 0.000361265 0.000485792 0.000281987 0.000361265 0.000377512 0.000468433 0.000361265 0.000485792 0.000468433 0.000609372 0.00056981 0.000634212 0.000662113 0.000696597 0.000634212 0.000712186 0.000696597 0.000693735 0.000662113 0.000696597 0.000755582 0.000751487 0.000696597 0.000693735 0.000751487 0.000660141 0.000499998 0.000669163 0.000567655 0.000749709 0.000567655 0.000749709 0.000617295 0.000816479 0 0 9.32313e-05 0.000122115 0 0 0.000122115 0.000169618 9.32313e-05 0.000122115 0.000186463 0.000243529 0.000122115 0.000169618 0.000243529 0.000333301 0.000755582 0.000751487 0.000832279 0.000804121 0.000751487 0.000660141 0.000804121 0.00065187 0.000832279 0.000804121 0.000897621 0.000845361 0.000804121 0.00065187 0.000845361 0.000661522 0.000377512 0.000468433 0.000473661 0.000559775 0.000468433 0.000609372 0.000559775 0.000687491 0.000473661 0.000559775 0.00056981 0.000634212 0.000559775 0.000687491 0.000634212 0.000712186 0 0 0.000853604 0.00114063 0 0 0.00114063 0.00135298 0.000853604 0.00114063 0.00171208 0.00229235 0 0.000249999 0 0.000302566 0.000249999 0.000499998 0.000302566 0.000567655 0 0.000302566 0 0.000331267 0.000302566 0.000567655 0.000331267 0.000617295 0.000712186 0.000874941 0.000693735 0.000695689 0 0.000331267 0 0.000337354 0 0.000337354 0 0.0003206 0 0 0.000661089 0 0.000617295 0.000816479 0.000629828 0.000834191 0.000816479 0.000897621 0.000834191 0.000911183 0.000629828 0.000834191 0.000599021 0.000785911 0.00065187 0.000383979 0.000661522 0.000365612 0 0.0003206 0 0.000274915 0 0.000274915 0 0.000189726 0.000274915 0.000513297 0.000189726 0.000379453 0 0.000104067 0 0.000140984 0.000104067 0.000208133 0.000140984 0.000277303 0 0.000140984 0 0.000173236 0.000140984 0.000277303 0.000173236 0.000346473 0.000661522 0.000365612 0.000659774 0.000360561 0.000365612 0 0.000360561 0 0.000360561 0 0.000334173 0 0 0 0.000169618 0.000247568 0 0 0.000247568 0.000382698 0.000897621 0.000845361 0.000911183 0.000852242 0.000845361 0.000661522 0.000852242 0.000659774 0.000599021 0.000785911 0.000513297 0.00067465 0.000513297 0.00067465 0.000379453 0.000493089 0.000379453 0.000493089 0.000189726 0.000262367 0.000189726 0.000262367 0 0 0.000262367 0.000286106 0 0 0.000334173 0 0.000286784 0 0.00052197 0.000286784 0.000390423 0.000195211 0.000286784 0 0.000195211 0 0.000497698 0.000390423 0.00026654 0.000195211 0.000286106 0.00026654 0 0 0.00026654 0.000195211 0 0 0.00215656 0.00264572 0.00214187 0.00264029 0.00203287 0.00249883 0.00181446 0.0022248 0.00116447 0.00143827 0.00145214 0.0017716 0.00143827 0.00171208 0.0017716 0.00212652 0.00145214 0.0017716 0.00170075 0.00208399 0.0017716 0.00212652 0.00208399 0.00250328 0.00203493 0.00210774 0.00272864 0.00282436 0.00210774 0.00208763 0.00282436 0.00280468 0.001381 0.00130291 0.00208763 0.00196895 0.00130291 0.00115202 0.00196895 0.00174336 0.00208763 0.00196895 0.00280468 0.00264978 0.00196895 0.00174336 0.00264978 0.00234829 0.00115202 0.000935277 0.00174336 0.00141397 0.00174336 0.00141397 0.00234829 0.00190422 0.00141397 0.000996167 0.00190422 0.00133883 0.00181446 0.0022248 0.00148374 0.00180533 0.00148374 0.00180533 0.00105341 0.00127263 0.00180533 0.00217127 0.00127263 0.00153117 0.00137152 0.00170075 0.00154203 0.00191582 0.00123274 0.00154203 0.00133346 0.0016669 0.00154203 0.00191582 0.0016669 0.00207799 0.00170075 0.00208399 0.00191582 0.00234813 0.00133346 0.0016669 0.00138866 0.00173338 0.0016669 0.00207799 0.00173338 0.00215656 0.00138866 0.00173338 0.00139101 0.0017251 0.00173338 0.00215656 0.0017251 0.00214187 0.000872421 0.00106796 0.000904404 0.00111876 0.000904404 0.00111876 0.000936386 0.0011248 0.00111876 0.00138866 0.0011248 0.00139101 0.000936386 0.0011248 0.000905664 0.00109226 0.0011248 0.00139101 0.00109226 0.0013366 0.000905664 0.00109226 0.000874941 0.00100797 0.00109226 0.0013366 0.00100797 0.00121193 0.000669163 0.000712373 0.000709436 0.00076792 0.000712373 0.000755582 0.00076792 0.000793931 0.000709436 0.00076792 0.000749709 0.000806477 0.00076792 0.000793931 0.000806477 0.000832279 0.000711131 0.000878552 0.000791776 0.000985784 0.000878552 0.00109817 0.000985784 0.00123274 0.000791776 0.000985784 0.000872421 0.00106796 0.000985784 0.00123274 0.00106796 0.00133346 0.000874941 0.00100797 0.000785315 0.000882499 0.00100797 0.00121193 0.000882499 0.00102266 0.000785315 0.000882499 0.000695689 0.000711716 0.000882499 0.00102266 0.000711716 0.000774613 0.00114063 0.0012468 0.00171649 0.00189857 0.0012468 0.00135298 0.00189857 0.00203493 0.00171649 0.00189857 0.00229235 0.0025407 0.00171208 0.00200222 0.00212652 0.00249446 0.00200222 0.00229235 0.00249446 0.00285189 0.00249446 0.00285189 0.00294779 0.00337537 0 0 0.000676489 0.000694708 0 0 0.000694708 0.000686921 0.000676489 0.000694708 0.00135298 0.00139856 0.000694708 0.000686921 0.00139856 0.001381 0.000695689 0.000711716 0.000582704 0.000518862 0.000711716 0.000774613 0.000518862 0.000460698 0 0 0.000572462 0.000464594 0 0 0.000464594 0.000330544 0.000572462 0.000464594 0.00115202 0.000935277 0.000464594 0.000330544 0.000935277 0.000661089 0.000661089 0.000330544 0.000996167 0.00051475 0.000330544 0 0.00051475 0 0.00051475 0 0.000689347 0 0.000749709 0.000806477 0.000783094 0.000844591 0.000806477 0.000832279 0.000844591 0.00086495 0.000783094 0.000844591 0.000816479 0.00085705 0.000844591 0.00086495 0.00085705 0.000897621 0.000761024 0.000962747 0.0009391 0.00117034 0.000962747 0.00116447 0.00117034 0.00145214 0.0009391 0.00117034 0.00109817 0.00137152 0.00117034 0.00145214 0.00137152 0.00170075 0.000233237 0 0.000202988 0 0.000880984 0.00105341 0.000474501 0.000548138 0.000474501 0.000548138 0 0 0.000548138 0.00065723 0 0 0.00065723 0.000790151 0 0 0.000331267 0.000474281 0.00033431 0.000492261 0.000474281 0.000617295 0.000492261 0.000623562 0.00033431 0.000492261 0.000337354 0.000489812 0.000492261 0.000623562 0.000489812 0.000629828 0.000493598 0.000606368 0.000602365 0.000752005 0.000606368 0.000761024 0.000752005 0.0009391 0.000602365 0.000752005 0.000711131 0.000878552 0.000337354 0.000489812 0.000328977 0.000486441 0.000489812 0.000629828 0.000486441 0.000614424 0.000328977 0.000486441 0.0003206 0.000464095 0.000486441 0.000614424 0.000464095 0.000599021 0.000834191 0.000872687 0.000810051 0.000873371 0.000872687 0.000911183 0.000873371 0.000882523 0.000810051 0.000873371 0.000785911 0.000833343 0.000873371 0.000882523 0.000833343 0.00084604 0.0003206 0.000464095 0.000297758 0.000440691 0.000464095 0.000599021 0.000440691 0.000556159 0.000297758 0.000440691 0.000274915 0.000394106 0.000440691 0.000556159 0.000394106 0.000513297 0.000659774 0.000510167 0.000635933 0.000508946 0.000510167 0.000360561 0.000508946 0.000347367 0.000635933 0.000508946 0.000608195 0.000483817 0.000508946 0.000347367 0.000483817 0.000334173 0.000660141 0.000585859 0.000656006 0.00054883 0.000585859 0.000479751 0.00054883 0.000410589 0.000656006 0.00054883 0.00065187 0.000517925 0.00054883 0.000410589 0.000517925 0.000383979 0.000169618 0.000208593 0.000251459 0.000303342 0.000208593 0.000247568 0.000303342 0.000379265 0.000251459 0.000303342 0.000333301 0.00041345 0.000303342 0.000379265 0.00041345 0.000493598 0.000247568 0.000315133 0.000379265 0.000460366 0.000315133 0.000382698 0.000460366 0.000571861 0.000379265 0.000460366 0.000493598 0.000606368 0.000460366 0.000571861 0.000606368 0.000761024 0.000911183 0.000881713 0.000882523 0.000882342 0.000881713 0.000852242 0.000882342 0.000823703 0.000882523 0.000882342 0.00084604 0.000841665 0.000882342 0.000823703 0.000841665 0.000788661 0.000852242 0.000756008 0.000823703 0.000755595 0.000756008 0.000659774 0.000755595 0.000635933 0.000823703 0.000755595 0.000788661 0.000719666 0.000755595 0.000635933 0.000719666 0.000608195 0.000785911 0.000833343 0.00073028 0.00078898 0.000833343 0.00084604 0.00078898 0.000798584 0.00073028 0.00078898 0.00067465 0.000713185 0.00078898 0.000798584 0.000713185 0.000723509 0.00067465 0.000713185 0.00058387 0.000632029 0.000713185 0.000723509 0.000632029 0.000639435 0.00058387 0.000632029 0.000493089 0.00052298 0.000632029 0.000639435 0.00052298 0.000530553 0 0 0.000686921 0.000649699 0 0 0.000649699 0.000572462 0.000493089 0.00052298 0.000377728 0.000409979 0.00052298 0.000530553 0.000409979 0.000413913 0.000377728 0.000409979 0.000262367 0.000274237 0.000409979 0.000413913 0.000274237 0.000286106 0.00084604 0.000841665 0.000798584 0.000794556 0.000841665 0.000788661 0.000794556 0.000743688 0.000798584 0.000794556 0.000723509 0.000719496 0.000794556 0.000743688 0.000719496 0.000673253 0.000788661 0.000719666 0.000743688 0.000678755 0.000719666 0.000608195 0.000678755 0.000572171 0.000743688 0.000678755 0.000673253 0.000613715 0.000678755 0.000572171 0.000613715 0.00052197 0.000723509 0.000719496 0.000639435 0.000636159 0.000719496 0.000673253 0.000636159 0.000594313 0.000639435 0.000636159 0.000530553 0.000527054 0.000636159 0.000594313 0.000527054 0.000497698 0.000673253 0.000613715 0.000594313 0.000543257 0.000613715 0.00052197 0.000543257 0.000456197 0.000594313 0.000543257 0.000497698 0.00044406 0.000543257 0.000456197 0.00044406 0.000390423 0.000689347 0 0.000870069 0 0.00167769 0.000870069 0.00200105 0.00103619 0.000870069 0 0.00103619 0 0.00103619 0 0.00117567 0 0.00117567 0 0.00129098 0 0.000608195 0.000483817 0.000572171 0.000456537 0.000483817 0.000334173 0.000456537 0.000310479 0.000572171 0.000456537 0.00052197 0.000404377 0.000456537 0.000310479 0.000404377 0.000286784 0.00294779 0.00337537 0.00333371 0.00382393 0.00282884 0.00333371 0.00307542 0.00362469 0.00333371 0.00382393 0.00362469 0.0041595 0.00337537 0.0037526 0.00382393 0.00426235 0.0037526 0.00404333 0.00426235 0.00459123 0.00382393 0.00426235 0.0041595 0.00464505 0.000530553 0.000527054 0.000413913 0.000412877 0.000527054 0.000497698 0.000412877 0.000382119 0.000413913 0.000412877 0.000286106 0.000276323 0.000412877 0.000382119 0.000276323 0.00026654 0.0025407 0.00272864 0.00316847 0.00340539 0.00285189 0.00316847 0.00337537 0.0037526 0.00316847 0.00340539 0.0037526 0.00404333 0.00108467 0.00120644 0 0 0.00272864 0.00282436 0.00340539 0.00353067 0.00282436 0.00280468 0.00353067 0.00350325 0.00340539 0.00353067 0.00404333 0.00419223 0.00307542 0.00362469 0.00319575 0.0037803 0.000693735 0.000694712 0.000676938 0.000635467 0.000694712 0.000695689 0.000635467 0.000582704 0.000676938 0.000635467 0.000660141 0.000585859 0.000635467 0.000582704 0.000585859 0.000479751 0.000383979 0.000202988 0.000374796 0.000191246 0.000202988 0 0.000191246 0 0.000374796 0.000191246 0.000365612 0.000182806 0.000191246 0 0.000182806 0 0.00217127 0.00257422 0.00153117 0.00181809 0.00181809 0.00209162 0.000939769 0.00108467 0.000790151 0.000939769 0 0 0.000939769 0.00108467 0 0 0.00404333 0.00411778 0.00431728 0.00441824 0.00411778 0.00419223 0.00441824 0.00448395 0.00431728 0.00441824 0.00459123 0.00469451 0.00459123 0.00469451 0.00480882 0.00492328 0.00254306 0.00279149 0.00261936 0.00287118 0.00279149 0.00307542 0.00287118 0.00313558 0.00287118 0.00313558 0.00290262 0.00319575 0.00207799 0.00229055 0.00211728 0.00236107 0.00229055 0.00254306 0.00236107 0.00261936 0.00211728 0.00236107 0.00215656 0.00240114 0.00236107 0.00261936 0.00240114 0.00264572 0.0041595 0.00440227 0.00426793 0.00452399 0.00440227 0.00464505 0.00452399 0.00476555 0.00426793 0.00452399 0.00433663 0.00460398 0.00464505 0.00483167 0.00476555 0.0049654 0.00214187 0.00239108 0.00211825 0.00233959 0.00239108 0.00264029 0.00233959 0.00258327 0.00211825 0.00233959 0.00203287 0.00226585 0.00233959 0.00258327 0.00226585 0.00249883 0.00264572 0.00290262 0.002643 0.00293081 0.00290262 0.00319575 0.00293081 0.00322085 0.002643 0.00293081 0.00264029 0.00289288 0.00293081 0.00322085 0.00289288 0.00317891 0.00135298 0.00137577 0.00169396 0.00173152 0.00137577 0.00139856 0.00173152 0.00173936 0.00169396 0.00173152 0.00203493 0.00207134 0.00173152 0.00173936 0.00207134 0.00210774 0.00139856 0.00138978 0.00173936 0.00175388 0.00138978 0.001381 0.00175388 0.00173432 0.00173936 0.00175388 0.00210774 0.00209769 0.00175388 0.00173432 0.00209769 0.00208763 0.00353067 0.00351696 0.00386145 0.0038712 0.00351696 0.00350325 0.0038712 0.00383503 0.00386145 0.0038712 0.00419223 0.00419592 0.0038712 0.00383503 0.00419592 0.00416179 0.000935277 0.000798183 0.00117462 0.00101078 0.000798183 0.000661089 0.00101078 0.000828628 0.00117462 0.00101078 0.00141397 0.00120507 0.00101078 0.000828628 0.00120507 0.000996167 0.00258327 0.00284542 0.00249883 0.00274421 0.00284542 0.00311565 0.00274421 0.00301396 0.00383503 0.00375773 0.00416179 0.0040735 0.00375773 0.00362683 0.0040735 0.00393409 0.00362683 0.00344572 0.00393409 0.00373686 0.00344572 0.00321488 0.00373686 0.00348846 0.00109817 0.00123485 0.00116546 0.00130583 0.00123485 0.00137152 0.00130583 0.00145678 0.00116546 0.00130583 0.00123274 0.00138739 0.00130583 0.00145678 0.00138739 0.00154203 0.00249883 0.00274421 0.00236181 0.00260945 0.00274421 0.00301396 0.00260945 0.00286053 0.00236181 0.00260945 0.0022248 0.00243245 0.00260945 0.00286053 0.00243245 0.00267535 0.00321488 0.00293587 0.00348846 0.00318457 0.00293587 0.00261195 0.00318457 0.00283369 0.00237276 0.00205306 0.00261195 0.00224557 0.00205306 0.00167769 0.00224557 0.00183937 0.00261195 0.00224557 0.00283369 0.00243625 0.00224557 0.00183937 0.00243625 0.00200105 0.00208399 0.00229364 0.00221606 0.00244652 0.00229364 0.00250328 0.00244652 0.00268161 0.00221606 0.00244652 0.00234813 0.00257565 0.00244652 0.00268161 0.00257565 0.00282884 0.00362469 0.00389209 0.0037025 0.00399237 0.00389209 0.0041595 0.00399237 0.00426793 0.0037025 0.00399237 0.0037803 0.00405712 0.00191582 0.00213197 0.00199691 0.0022234 0.00213197 0.00234813 0.0022234 0.00246505 0.00199691 0.0022234 0.00207799 0.00229055 0.0022234 0.00246505 0.00229055 0.00254306 0.0037803 0.00405712 0.00379398 0.00408128 0.00379398 0.00408128 0.00376172 0.00404863 0.00234813 0.00257565 0.00246505 0.00270654 0.00257565 0.00282884 0.00270654 0.00295213 0.00246505 0.00270654 0.00254306 0.00279149 0.00270654 0.00295213 0.00279149 0.00307542 0.0039692 0.00424328 0.00383594 0.00410321 0.00106796 0.00120071 0.00109336 0.00122293 0.00120071 0.00133346 0.00122293 0.00136106 0.00109336 0.00122293 0.00111876 0.00125371 0.00122293 0.00136106 0.00125371 0.00138866 0.00383594 0.00410321 0.00364853 0.00390167 0.00364853 0.00390167 0.00340647 0.00364476 0.00189857 0.00196675 0.00221964 0.00231269 0.00196675 0.00203493 0.00231269 0.00238179 0.00221964 0.00231269 0.0025407 0.00263467 0.00231269 0.00238179 0.00263467 0.00272864 0.00340647 0.00364476 0.00311318 0.00332908 0.00311318 0.00332908 0.00276569 0.00296322 0.00212652 0.00231049 0.0023149 0.00252423 0.00231049 0.00249446 0.00252423 0.00272112 0.0023149 0.00252423 0.00250328 0.00271825 0.00252423 0.00272112 0.00271825 0.00294779 0.00257422 0.00276569 0.00219616 0.00237812 0.00276569 0.00296322 0.00237812 0.00254882 0.00219616 0.00237812 0.00181809 0.00195486 0.00237812 0.00254882 0.00195486 0.00209162 0.00315122 0.00257837 0.00304725 0.00248892 0.00304725 0.00248892 0.00290643 0.00237693 0.00316372 0.00305596 0.00258928 0.00249671 0.00305596 0.00291225 0.00249671 0.00238232 0.000582704 0.000550783 0.000531228 0.000479361 0.000550783 0.000518862 0.000479361 0.000414872 0.000531228 0.000479361 0.000479751 0.000422668 0.000479361 0.000414872 0.000422668 0.000332853 0.00519241 0.00521437 0.00534585 0.00536683 0.00521437 0.00517307 0.00536683 0.00531876 0.00534585 0.00536683 0.0054386 0.00545355 0.00522659 0.00535832 0.00525821 0.00539878 0.00535832 0.0054386 0.00539878 0.00547674 0.00525821 0.00539878 0.00522666 0.00535878 0.00539878 0.00547674 0.00535878 0.00544513 0.0054386 0.00545355 0.00547674 0.00550736 0.00545355 0.00541289 0.00550736 0.00546264 0.000996167 0.000755458 0.0011675 0.000896167 0.000755458 0.00051475 0.000896167 0.000602049 0.0011675 0.000896167 0.00133883 0.00102849 0.000896167 0.000602049 0.00102849 0.000689347 0.00517307 0.00506169 0.00531876 0.005224 0.00506169 0.00489323 0.005224 0.00503347 0.00531876 0.005224 0.00541289 0.00530876 0.005224 0.00503347 0.00530876 0.00512937 0.000410589 0.00033807 0.000397284 0.00031067 0.00033807 0.000233237 0.00031067 0.000218113 0.000397284 0.00031067 0.000383979 0.000293484 0.00031067 0.000218113 0.000293484 0.000202988 0.00541289 0.00530876 0.00546264 0.00535364 0.00530876 0.00512937 0.00535364 0.00516406 0.00522666 0.00535878 0.00512105 0.00527346 0.00535878 0.00544513 0.00527346 0.005332 0.00512105 0.00527346 0.00495763 0.00508079 0.00105341 0.00116302 0.000800776 0.000889757 0.00116302 0.00127263 0.000889757 0.000984507 0.000800776 0.000889757 0.000548138 0.000602684 0.000889757 0.000984507 0.000602684 0.00065723 0.00280468 0.00272723 0.00315396 0.00308099 0.00272723 0.00264978 0.00308099 0.0029688 0.00315396 0.00308099 0.00350325 0.00342621 0.00308099 0.0029688 0.00342621 0.00330499 0.00264978 0.00249904 0.0029688 0.00282645 0.00249904 0.00234829 0.00282645 0.00262648 0.0029688 0.00282645 0.00330499 0.00313936 0.00282645 0.00262648 0.00313936 0.00292837 0.00234829 0.00212626 0.00262648 0.00240592 0.00212626 0.00190422 0.00240592 0.00213275 0.00262648 0.00240592 0.00292837 0.00267564 0.00240592 0.00213275 0.00267564 0.00237276 0.00127263 0.0014019 0.000984507 0.00107503 0.0014019 0.00153117 0.00107503 0.00118106 0.000984507 0.00107503 0.00065723 0.00072369 0.00107503 0.00118106 0.00072369 0.000790151 0.00522731 0.0050552 0.00505273 0.00488426 0.00434381 0.00396633 0.00447161 0.00409132 0.00396633 0.00353297 0.00409132 0.00363625 0.00447161 0.00409132 0.00456952 0.00416503 0.00353297 0.00303606 0.00363625 0.0031379 0.00303606 0.00248694 0.0031379 0.00256822 0.00456952 0.00416503 0.00457687 0.0041836 0.00129098 0.000645489 0.00132327 0.000668432 0.000645489 0 0.000668432 0 0.000668432 0 0.000677862 0 0.000677862 0 0.000684342 0 0.000684342 0 0.000680821 0 0.00319575 0.00348802 0.00322085 0.00349793 0.00348802 0.0037803 0.00349793 0.00379398 0.00322085 0.00349793 0.00317891 0.00347337 0.00349793 0.00379398 0.00347337 0.00376172 0.000680821 0 0.000668656 0 0.000668656 0 0.000647175 0 0.000647175 0 0.000616277 0 0.000616277 0 0.000576065 0 0.00440815 0.00451856 0.00402651 0.00413791 0.00451856 0.00460349 0.00413791 0.00420062 0.00402651 0.00413791 0.00358835 0.00367982 0.00460349 0.0046035 0.00420062 0.00421004 0.00347337 0.00376172 0.00340387 0.00368847 0.00340387 0.00368847 0.0032834 0.00356136 0.00358835 0.00367982 0.00308459 0.00317627 0.00308459 0.00317627 0.00252773 0.00260018 0.00301396 0.0032834 0.00286053 0.00312558 0.0032834 0.00356136 0.00312558 0.00338759 0.00286053 0.00312558 0.00267535 0.00291439 0.00312558 0.00338759 0.00291439 0.00316143 0.00130571 0.0013425 0.00066371 0.000677149 0.00066371 0.000677149 0 0 0.000677149 0.000684747 0 0 0.000684747 0.000689651 0 0 0.000689651 0.000684917 0 0 0.00267535 0.00291439 0.00244061 0.00266622 0.00291439 0.00316143 0.00266622 0.00288989 0.00244061 0.00266622 0.00217127 0.00237275 0.00266622 0.00288989 0.00237275 0.00257422 0.00419223 0.00419592 0.00448395 0.00449768 0.000684917 0.000671746 0 0 0.000671746 0.000649464 0 0 0.000649464 0.00061