# vtk DataFile Version 3.0
#This file was generated by the deal.II library on 2021/4/23 at 0:45:39
ASCII
DATASET UNSTRUCTURED_GRID

FIELD FieldData 2
CYCLE 1 1 int
31
TIME 1 1 double
0.062
POINTS 6144 double
-1 -1 0
-0.75 -1 0
-1 -0.75 0
-0.75 -0.75 0
-0.75 -1 0
-0.5 -1 0
-0.75 -0.75 0
-0.5 -0.75 0
-1 -0.75 0
-0.75 -0.75 0
-1 -0.5 0
-0.75 -0.5 0
-0.75 -0.75 0
-0.5 -0.75 0
-0.75 -0.5 0
-0.5 -0.5 0
-0.5 -1 0
-0.25 -1 0
-0.5 -0.75 0
-0.25 -0.75 0
-1 -0.5 0
-0.75 -0.5 0
-1 -0.25 0
-0.75 -0.25 0
-0.75 -0.5 0
-0.5 -0.5 0
-0.75 -0.25 0
-0.5 -0.25 0
-1 -0.25 0
-0.75 -0.25 0
-1 0 0
-0.75 0 0
-0.75 -0.25 0
-0.5 -0.25 0
-0.75 0 0
-0.5 0 0
-1 0 0
-0.75 0 0
-1 0.25 0
-0.75 0.25 0
-0.75 0 0
-0.5 0 0
-0.75 0.25 0
-0.5 0.25 0
-1 0.25 0
-0.75 0.25 0
-1 0.5 0
-0.75 0.5 0
-0.75 0.25 0
-0.5 0.25 0
-0.75 0.5 0
-0.5 0.5 0
-0.5 0 0
-0.25 0 0
-0.5 0.25 0
-0.25 0.25 0
-0.5 0.25 0
-0.25 0.25 0
-0.5 0.5 0
-0.25 0.5 0
-0.25 0.25 0
0 0.25 0
-0.25 0.5 0
0 0.5 0
-1 0.5 0
-0.75 0.5 0
-1 0.75 0
-0.75 0.75 0
-0.75 0.5 0
-0.5 0.5 0
-0.75 0.75 0
-0.5 0.75 0
-1 0.75 0
-0.75 0.75 0
-1 1 0
-0.75 1 0
-0.75 0.75 0
-0.5 0.75 0
-0.75 1 0
-0.5 1 0
-0.5 0.5 0
-0.25 0.5 0
-0.5 0.75 0
-0.25 0.75 0
-0.25 0.5 0
0 0.5 0
-0.25 0.75 0
0 0.75 0
-0.5 0.75 0
-0.25 0.75 0
-0.5 1 0
-0.25 1 0
-0.25 0.75 0
0 0.75 0
-0.25 1 0
0 1 0
-0.25 -0.125 0
-0.125 -0.125 0
-0.25 0 0
-0.125 0 0
-0.25 -1 0
-0.125 -1 0
-0.25 -0.875 0
-0.125 -0.875 0
-0.125 -1 0
0 -1 0
-0.125 -0.875 0
0 -0.875 0
-0.25 -0.875 0
-0.125 -0.875 0
-0.25 -0.75 0
-0.125 -0.75 0
0 -1 0
0.125 -1 0
0 -0.875 0
0.125 -0.875 0
-0.5 -0.75 0
-0.375 -0.75 0
-0.5 -0.625 0
-0.375 -0.625 0
-0.375 -0.75 0
-0.25 -0.75 0
-0.375 -0.625 0
-0.25 -0.625 0
-0.5 -0.625 0
-0.375 -0.625 0
-0.5 -0.5 0
-0.375 -0.5 0
-0.375 -0.625 0
-0.25 -0.625 0
-0.375 -0.5 0
-0.25 -0.5 0
-0.5 -0.5 0
-0.375 -0.5 0
-0.5 -0.375 0
-0.375 -0.375 0
-0.375 -0.5 0
-0.25 -0.5 0
-0.375 -0.375 0
-0.25 -0.375 0
-0.5 -0.375 0
-0.375 -0.375 0
-0.5 -0.25 0
-0.375 -0.25 0
-0.375 -0.375 0
-0.25 -0.375 0
-0.375 -0.25 0
-0.25 -0.25 0
-0.5 -0.25 0
-0.375 -0.25 0
-0.5 -0.125 0
-0.375 -0.125 0
-0.375 -0.25 0
-0.25 -0.25 0
-0.375 -0.125 0
-0.25 -0.125 0
-0.5 -0.125 0
-0.375 -0.125 0
-0.5 0 0
-0.375 0 0
-0.375 -0.125 0
-0.25 -0.125 0
-0.375 0 0
-0.25 0 0
-0.25 0 0
-0.125 0 0
-0.25 0.125 0
-0.125 0.125 0
-0.125 0 0
0 0 0
-0.125 0.125 0
0 0.125 0
-0.25 0.125 0
-0.125 0.125 0
-0.25 0.25 0
-0.125 0.25 0
-0.125 0.125 0
0 0.125 0
-0.125 0.25 0
0 0.25 0
0.9375 -0.3125 0
1 -0.3125 0
0.9375 -0.25 0
1 -0.25 0
0.6875 -0.0625 0
0.75 -0.0625 0
0.6875 0 0
0.75 0 0
0.9375 -0.25 0
1 -0.25 0
0.9375 -0.1875 0
1 -0.1875 0
0.9375 -0.1875 0
1 -0.1875 0
0.9375 -0.125 0
1 -0.125 0
0.75 -0.0625 0
0.8125 -0.0625 0
0.75 0 0
0.8125 0 0
0.8125 -0.0625 0
0.875 -0.0625 0
0.8125 0 0
0.875 0 0
0.9375 -0.0625 0
1 -0.0625 0
0.9375 0 0
1 0 0
0.5 -0.75 0
0.5625 -0.75 0
0.5 -0.6875 0
0.5625 -0.6875 0
0.875 -0.75 0
0.9375 -0.75 0
0.875 -0.6875 0
0.9375 -0.6875 0
0.9375 -0.75 0
1 -0.75 0
0.9375 -0.6875 0
1 -0.6875 0
0.9375 -0.5625 0
1 -0.5625 0
0.9375 -0.5 0
1 -0.5 0
0.25 -0.5 0
0.3125 -0.5 0
0.25 -0.4375 0
0.3125 -0.4375 0
0.25 -0.125 0
0.3125 -0.125 0
0.25 -0.0625 0
0.3125 -0.0625 0
0.25 -0.0625 0
0.3125 -0.0625 0
0.25 0 0
0.3125 0 0
0.4375 -0.0625 0
0.5 -0.0625 0
0.4375 0 0
0.5 0 0
0.375 -0.75 0
0.4375 -0.75 0
0.375 -0.6875 0
0.4375 -0.6875 0
0.4375 -0.75 0
0.5 -0.75 0
0.4375 -0.6875 0
0.5 -0.6875 0
0.375 -0.6875 0
0.4375 -0.6875 0
0.375 -0.625 0
0.4375 -0.625 0
0.4375 -0.6875 0
0.5 -0.6875 0
0.4375 -0.625 0
0.5 -0.625 0
0.25 -0.625 0
0.3125 -0.625 0
0.25 -0.5625 0
0.3125 -0.5625 0
0.3125 -0.625 0
0.375 -0.625 0
0.3125 -0.5625 0
0.375 -0.5625 0
0.25 -0.5625 0
0.3125 -0.5625 0
0.25 -0.5 0
0.3125 -0.5 0
0.3125 -0.5625 0
0.375 -0.5625 0
0.3125 -0.5 0
0.375 -0.5 0
0.375 -0.625 0
0.4375 -0.625 0
0.375 -0.5625 0
0.4375 -0.5625 0
0.625 -1 0
0.6875 -1 0
0.625 -0.9375 0
0.6875 -0.9375 0
0.6875 -1 0
0.75 -1 0
0.6875 -0.9375 0
0.75 -0.9375 0
0.6875 -0.9375 0
0.75 -0.9375 0
0.6875 -0.875 0
0.75 -0.875 0
0.5 -0.875 0
0.5625 -0.875 0
0.5 -0.8125 0
0.5625 -0.8125 0
0.5625 -0.875 0
0.625 -0.875 0
0.5625 -0.8125 0
0.625 -0.8125 0
0.5 -0.8125 0
0.5625 -0.8125 0
0.5 -0.75 0
0.5625 -0.75 0
0.625 -0.875 0
0.6875 -0.875 0
0.625 -0.8125 0
0.6875 -0.8125 0
0.6875 -0.875 0
0.75 -0.875 0
0.6875 -0.8125 0
0.75 -0.8125 0
0.75 -0.875 0
0.8125 -0.875 0
0.75 -0.8125 0
0.8125 -0.8125 0
0.8125 -0.875 0
0.875 -0.875 0
0.8125 -0.8125 0
0.875 -0.8125 0
0.8125 -0.8125 0
0.875 -0.8125 0
0.8125 -0.75 0
0.875 -0.75 0
0 -0.5 0
0.0625 -0.5 0
0 -0.4375 0
0.0625 -0.4375 0
0.0625 -0.5 0
0.125 -0.5 0
0.0625 -0.4375 0
0.125 -0.4375 0
0 -0.4375 0
0.0625 -0.4375 0
0 -0.375 0
0.0625 -0.375 0
0.0625 -0.4375 0
0.125 -0.4375 0
0.0625 -0.375 0
0.125 -0.375 0
0.125 -0.5 0
0.1875 -0.5 0
0.125 -0.4375 0
0.1875 -0.4375 0
0.1875 -0.5 0
0.25 -0.5 0
0.1875 -0.4375 0
0.25 -0.4375 0
0.125 -0.4375 0
0.1875 -0.4375 0
0.125 -0.375 0
0.1875 -0.375 0
0 -0.375 0
0.0625 -0.375 0
0 -0.3125 0
0.0625 -0.3125 0
0.0625 -0.375 0
0.125 -0.375 0
0.0625 -0.3125 0
0.125 -0.3125 0
0 -0.3125 0
0.0625 -0.3125 0
0 -0.25 0
0.0625 -0.25 0
0.0625 -0.3125 0
0.125 -0.3125 0
0.0625 -0.25 0
0.125 -0.25 0
0.125 -0.375 0
0.1875 -0.375 0
0.125 -0.3125 0
0.1875 -0.3125 0
0.0625 -0.25 0
0.125 -0.25 0
0.0625 -0.1875 0
0.125 -0.1875 0
0.0625 -0.1875 0
0.125 -0.1875 0
0.0625 -0.125 0
0.125 -0.125 0
0.125 -0.25 0
0.1875 -0.25 0
0.125 -0.1875 0
0.1875 -0.1875 0
0.125 -0.1875 0
0.1875 -0.1875 0
0.125 -0.125 0
0.1875 -0.125 0
0.4375 -0.875 0
0.5 -0.875 0
0.4375 -0.8125 0
0.5 -0.8125 0
0.375 -0.8125 0
0.4375 -0.8125 0
0.375 -0.75 0
0.4375 -0.75 0
0.4375 -0.8125 0
0.5 -0.8125 0
0.4375 -0.75 0
0.5 -0.75 0
0.125 -0.625 0
0.1875 -0.625 0
0.125 -0.5625 0
0.1875 -0.5625 0
0.1875 -0.625 0
0.25 -0.625 0
0.1875 -0.5625 0
0.25 -0.5625 0
0.125 -0.5625 0
0.1875 -0.5625 0
0.125 -0.5 0
0.1875 -0.5 0
0.1875 -0.5625 0
0.25 -0.5625 0
0.1875 -0.5 0
0.25 -0.5 0
0.3125 -0.75 0
0.375 -0.75 0
0.3125 -0.6875 0
0.375 -0.6875 0
0.3125 -0.6875 0
0.375 -0.6875 0
0.3125 -0.625 0
0.375 -0.625 0
0.5 -1 0
0.5625 -1 0
0.5 -0.9375 0
0.5625 -0.9375 0
0.5625 -1 0
0.625 -1 0
0.5625 -0.9375 0
0.625 -0.9375 0
0.5 -0.9375 0
0.5625 -0.9375 0
0.5 -0.875 0
0.5625 -0.875 0
0.75 -1 0
0.8125 -1 0
0.75 -0.9375 0
0.8125 -0.9375 0
0.8125 -1 0
0.875 -1 0
0.8125 -0.9375 0
0.875 -0.9375 0
0.8125 -0.9375 0
0.875 -0.9375 0
0.8125 -0.875 0
0.875 -0.875 0
0.875 -1 0
0.9375 -1 0
0.875 -0.9375 0
0.9375 -0.9375 0
0.9375 -1 0
1 -1 0
0.9375 -0.9375 0
1 -0.9375 0
0.875 -0.9375 0
0.9375 -0.9375 0
0.875 -0.875 0
0.9375 -0.875 0
0.9375 -0.9375 0
1 -0.9375 0
0.9375 -0.875 0
1 -0.875 0
0.9375 -0.875 0
1 -0.875 0
0.9375 -0.8125 0
1 -0.8125 0
0.9375 -0.8125 0
1 -0.8125 0
0.9375 -0.75 0
1 -0.75 0
0 -0.125 0
0.0625 -0.125 0
0 -0.0625 0
0.0625 -0.0625 0
0 -0.0625 0
0.0625 -0.0625 0
0 0 0
0.0625 0 0
0.0625 -0.0625 0
0.125 -0.0625 0
0.0625 0 0
0.125 0 0
0.125 -0.0625 0
0.1875 -0.0625 0
0.125 0 0
0.1875 0 0
0.1875 -0.0625 0
0.25 -0.0625 0
0.1875 0 0
0.25 0 0
0.375 -1 0
0.4375 -1 0
0.375 -0.9375 0
0.4375 -0.9375 0
0.4375 -1 0
0.5 -1 0
0.4375 -0.9375 0
0.5 -0.9375 0
0.375 -0.9375 0
0.4375 -0.9375 0
0.375 -0.875 0
0.4375 -0.875 0
0.4375 -0.9375 0
0.5 -0.9375 0
0.4375 -0.875 0
0.5 -0.875 0
0.25 -0.875 0
0.3125 -0.875 0
0.25 -0.8125 0
0.3125 -0.8125 0
0.3125 -0.875 0
0.375 -0.875 0
0.3125 -0.8125 0
0.375 -0.8125 0
0.25 -0.8125 0
0.3125 -0.8125 0
0.25 -0.75 0
0.3125 -0.75 0
0.3125 -0.8125 0
0.375 -0.8125 0
0.3125 -0.75 0
0.375 -0.75 0
0 -0.75 0
0.0625 -0.75 0
0 -0.6875 0
0.0625 -0.6875 0
0.0625 -0.75 0
0.125 -0.75 0
0.0625 -0.6875 0
0.125 -0.6875 0
-0.125 -0.25 0
-0.0625 -0.25 0
-0.125 -0.1875 0
-0.0625 -0.1875 0
-0.125 -0.1875 0
-0.0625 -0.1875 0
-0.125 -0.125 0
-0.0625 -0.125 0
-0.0625 -0.1875 0
0 -0.1875 0
-0.0625 -0.125 0
0 -0.125 0
0.25 -1 0
0.3125 -1 0
0.25 -0.9375 0
0.3125 -0.9375 0
0.3125 -1 0
0.375 -1 0
0.3125 -0.9375 0
0.375 -0.9375 0
0.25 -0.9375 0
0.3125 -0.9375 0
0.25 -0.875 0
0.3125 -0.875 0
0.3125 -0.9375 0
0.375 -0.9375 0
0.3125 -0.875 0
0.375 -0.875 0
-0.25 -0.5 0
-0.1875 -0.5 0
-0.25 -0.4375 0
-0.1875 -0.4375 0
-0.1875 -0.5 0
-0.125 -0.5 0
-0.1875 -0.4375 0
-0.125 -0.4375 0
-0.25 -0.4375 0
-0.1875 -0.4375 0
-0.25 -0.375 0
-0.1875 -0.375 0
-0.1875 -0.4375 0
-0.125 -0.4375 0
-0.1875 -0.375 0
-0.125 -0.375 0
-0.25 -0.375 0
-0.1875 -0.375 0
-0.25 -0.3125 0
-0.1875 -0.3125 0
-0.1875 -0.375 0
-0.125 -0.375 0
-0.1875 -0.3125 0
-0.125 -0.3125 0
-0.25 -0.3125 0
-0.1875 -0.3125 0
-0.25 -0.25 0
-0.1875 -0.25 0
-0.1875 -0.3125 0
-0.125 -0.3125 0
-0.1875 -0.25 0
-0.125 -0.25 0
-0.25 -0.25 0
-0.1875 -0.25 0
-0.25 -0.1875 0
-0.1875 -0.1875 0
-0.1875 -0.25 0
-0.125 -0.25 0
-0.1875 -0.1875 0
-0.125 -0.1875 0
-0.25 -0.1875 0
-0.1875 -0.1875 0
-0.25 -0.125 0
-0.1875 -0.125 0
-0.1875 -0.1875 0
-0.125 -0.1875 0
-0.1875 -0.125 0
-0.125 -0.125 0
-0.125 -0.125 0
-0.0625 -0.125 0
-0.125 -0.0625 0
-0.0625 -0.0625 0
-0.0625 -0.125 0
0 -0.125 0
-0.0625 -0.0625 0
0 -0.0625 0
-0.125 -0.0625 0
-0.0625 -0.0625 0
-0.125 0 0
-0.0625 0 0
-0.0625 -0.0625 0
0 -0.0625 0
-0.0625 0 0
0 0 0
-0.125 -0.875 0
-0.0625 -0.875 0
-0.125 -0.8125 0
-0.0625 -0.8125 0
-0.0625 -0.875 0
0 -0.875 0
-0.0625 -0.8125 0
0 -0.8125 0
-0.125 -0.8125 0
-0.0625 -0.8125 0
-0.125 -0.75 0
-0.0625 -0.75 0
-0.0625 -0.8125 0
0 -0.8125 0
-0.0625 -0.75 0
0 -0.75 0
-0.25 -0.75 0
-0.1875 -0.75 0
-0.25 -0.6875 0
-0.1875 -0.6875 0
-0.1875 -0.75 0
-0.125 -0.75 0
-0.1875 -0.6875 0
-0.125 -0.6875 0
-0.25 -0.6875 0
-0.1875 -0.6875 0
-0.25 -0.625 0
-0.1875 -0.625 0
-0.1875 -0.6875 0
-0.125 -0.6875 0
-0.1875 -0.625 0
-0.125 -0.625 0
-0.125 -0.75 0
-0.0625 -0.75 0
-0.125 -0.6875 0
-0.0625 -0.6875 0
-0.0625 -0.75 0
0 -0.75 0
-0.0625 -0.6875 0
0 -0.6875 0
-0.125 -0.6875 0
-0.0625 -0.6875 0
-0.125 -0.625 0
-0.0625 -0.625 0
-0.0625 -0.6875 0
0 -0.6875 0
-0.0625 -0.625 0
0 -0.625 0
-0.25 -0.625 0
-0.1875 -0.625 0
-0.25 -0.5625 0
-0.1875 -0.5625 0
-0.1875 -0.625 0
-0.125 -0.625 0
-0.1875 -0.5625 0
-0.125 -0.5625 0
-0.25 -0.5625 0
-0.1875 -0.5625 0
-0.25 -0.5 0
-0.1875 -0.5 0
-0.1875 -0.5625 0
-0.125 -0.5625 0
-0.1875 -0.5 0
-0.125 -0.5 0
-0.125 -0.625 0
[...]
POINT_DATA 6144
SCALARS U double 1
LOOKUP_TABLE default
0 0 0 -6.04265e-07 0 0 -6.04265e-07 -4.00987e-06 0 -6.04265e-07 0 -1.89023e-06 -6.04265e-07 -4.00987e-06 -1.89023e-06 -3.49287e-06 0 0 -4.00987e-06 2.6311e-05 0 -1.89023e-06 0 -1.72471e-06 -1.89023e-06 -3.49287e-06 -1.72471e-06 -2.14147e-06 0 -1.72471e-06 0 -9.2647e-07 -1.72471e-06 -2.14147e-06 -9.2647e-07 -1.07469e-07 0 -9.2647e-07 0 -8.88693e-08 -9.2647e-07 -1.07469e-07 -8.88693e-08 1.23083e-07 0 -8.88693e-08 0 2.70171e-08 -8.88693e-08 1.23083e-07 2.70171e-08 -7.20167e-08 -1.07469e-07 2.00057e-05 1.23083e-07 -3.47668e-07 1.23083e-07 -3.47668e-07 -7.20167e-08 -4.31626e-07 -3.47668e-07 0 -4.31626e-07 0 0 2.70171e-08 0 -5.61978e-10 2.70171e-08 -7.20167e-08 -5.61978e-10 1.00845e-08 0 -5.61978e-10 0 0 -5.61978e-10 1.00845e-08 0 0 -7.20167e-08 -4.31626e-07 1.00845e-08 1.23018e-07 -4.31626e-07 0 1.23018e-07 0 1.00845e-08 1.23018e-07 0 0 1.23018e-07 0 0 0 4.27454e-05 0.000125227 2.00057e-05 4.11343e-05 0 0 1.31555e-05 4.84967e-05 0 0 4.84967e-05 0.000128379 1.31555e-05 4.84967e-05 2.6311e-05 0.000107688 0 0 0.000128379 0.000286762 -4.00987e-06 1.11506e-05 -3.75137e-06 1.12467e-05 1.11506e-05 2.6311e-05 1.12467e-05 5.34405e-05 -3.75137e-06 1.12467e-05 -3.49287e-06 1.63444e-05 1.12467e-05 5.34405e-05 1.63444e-05 6.92648e-05 -3.49287e-06 1.63444e-05 -2.81717e-06 1.69044e-05 1.63444e-05 6.92648e-05 1.69044e-05 7.61098e-05 -2.81717e-06 1.69044e-05 -2.14147e-06 1.63334e-05 1.69044e-05 7.61098e-05 1.63334e-05 6.90589e-05 -2.14147e-06 1.63334e-05 -1.12447e-06 1.49177e-05 1.63334e-05 6.90589e-05 1.49177e-05 4.27454e-05 -1.12447e-06 1.49177e-05 -1.07469e-07 9.9491e-06 1.49177e-05 4.27454e-05 9.9491e-06 2.00057e-05 2.00057e-05 4.11343e-05 9.829e-06 1.16256e-06 4.11343e-05 0 1.16256e-06 0 9.829e-06 1.16256e-06 -3.47668e-07 -1.73834e-07 1.16256e-06 0 -1.73834e-07 0 0.00254419 0 0.0023559 0 0.00254479 0.00235629 0 0 0.0023559 0 0.00197345 0 0.00197345 0 0.00141916 0 0.00235629 0.00197364 0 0 0.00197364 0.00141921 0 0 0.000748137 0 0 0 0.00266168 0.00291246 0.00357953 0.00393622 0.00164368 0.000858425 0.00222298 0.00117113 0.000858425 0 0.00117113 0 0.00185193 0 0.00217566 0 0.00272699 0.00361133 0.0029825 0.00397204 0.00167559 0.00224351 0.000876401 0.00118052 0.000876401 0.00118052 0 0 0.00185324 0.00217682 0 0 0.00192291 0.00231213 0.00257021 0.00310115 0.00231213 0.00266168 0.00310115 0.00357953 0.00257021 0.00310115 0.00326424 0.00395411 0.00310115 0.00357953 0.00395411 0.00456225 0.00196637 0.0025872 0.002369 0.00312685 0.0025872 0.00326424 0.00312685 0.00396309 0.002369 0.00312685 0.00272699 0.00361133 0.00312685 0.00396309 0.00361133 0.00457617 0.00326424 0.00395411 0.00396309 0.00479362 0 0 0.000637763 0.000614887 0 0 0.000614887 0.000562867 0.000614887 0.000562867 0.0012924 0.00118048 0.00116076 0.00126873 0.00185432 0.00203118 0.00126873 0.00132337 0.00203118 0.00211802 0.00185432 0.00203118 0.00266168 0.00291246 0.00132337 0.0012924 0.00211802 0.00207791 0.0012924 0.00118048 0.00207791 0.00190393 0.00118048 0.000977945 0.00190393 0.00157775 0.000977945 0.000702426 0.00157775 0.00113091 0.00157775 0.00113091 0.0022814 0.00164368 0.000608423 0.000925179 0.000655705 0.00100789 0.000925179 0.00138024 0.00100789 0.00150614 0.000655705 0.00100789 0.000678534 0.00104558 0.00100789 0.00150614 0.00104558 0.00156223 0.00138024 0.0019784 0.00150614 0.00216215 0.0019784 0.00272699 0.00216215 0.0029825 0.00150614 0.00216215 0.00156223 0.00225643 0.000678534 0.00104558 0.000657161 0.00101899 0.00104558 0.00156223 0.00101899 0.00153065 0.000657161 0.00101899 0.000594437 0.000927691 0.00101899 0.00153065 0.000927691 0.00139506 0.00156223 0.00225643 0.00153065 0.00220326 0.000927691 0.00139506 0.000770768 0.00115449 0.000770768 0.00115449 0.000546909 0.000821905 0.00139506 0.00201327 0.00115449 0.00167713 0.00115449 0.00167713 0.000821905 0.00120594 0.00101591 0.00116076 0.00161738 0.00185432 0.00134869 0.00161738 0.00192291 0.00231213 0.00161738 0.00185432 0.00231213 0.00266168 0.00101547 0.00143986 0.00121343 0.00172253 0.00143986 0.00196637 0.00172253 0.002369 0.00121343 0.00172253 0.00138024 0.0019784 0.00172253 0.002369 0.0019784 0.00272699 0.00153316 0.00192291 0.00204593 0.00257021 0.00204593 0.00257021 0.0025872 0.00326424 0 0 0.000557155 0.000606863 0 0 0.000606863 0.000637763 0.000557155 0.000606863 0.00116076 0.00126873 0 0 0.000562867 0.000468046 0 0 0.000468046 0.000334916 0.000468046 0.000334916 0.000977945 0.000702426 0 0 0.000334916 0.000174423 0 0 0.000174423 0 0.000334916 0.000174423 0.000702426 0.000367004 0.000174423 0 0.000367004 0 0.000367004 0 0.000584415 0 0.000584415 0 0.000858425 0 0.00035198 0.000546909 0.000187037 0.00028363 0.000187037 0.00028363 0 0 0.00028363 0.000426231 0 0 0.000426231 0.000619758 0 0 0.000619758 0.000876401 0 0 0 0 0.000407157 0.000489004 0 0 0.000489004 0.000557155 0.000407157 0.000489004 0.000854494 0.00101591 0.000489004 0.000557155 0.00101591 0.00116076 0.000539826 0.000685816 0.000834876 0.00108236 0.000685816 0.000854494 0.00108236 0.00134869 0.000834876 0.00108236 0.00118995 0.00153316 0.00108236 0.00134869 0.00153316 0.00192291 0.000288762 0.000421238 0.000368744 0.000553498 0.000421238 0.000632741 0.000553498 0.000814083 0.000217102 0.000367803 0.000185052 0.000302289 0.000185052 0.000302289 0.000125227 0.000210767 0.000302289 0.000493234 0.000210767 0.00035198 0 0 0.000258745 0.000330137 0 0 0.000330137 0.000407157 0.000258745 0.000330137 0.000539826 0.000685816 0.000330137 0.000407157 0.000685816 0.000854494 6.92648e-05 0.000122254 7.26873e-05 0.000133088 0.000122254 0.000232888 0.000133088 0.000251519 7.26873e-05 0.000133088 7.61098e-05 0.000134827 0.000133088 0.000251519 0.000134827 0.000251741 7.61098e-05 0.000134827 7.25843e-05 0.000132783 0.000134827 0.000251741 0.000132783 0.000249157 7.25843e-05 0.000132783 6.90589e-05 0.000118709 0.000132783 0.000249157 0.000118709 0.000217102 6.90589e-05 0.000118709 5.59021e-05 9.98236e-05 0.000118709 0.000217102 9.98236e-05 0.000185052 5.59021e-05 9.98236e-05 4.27454e-05 8.39862e-05 9.98236e-05 0.000185052 8.39862e-05 0.000125227 0.000125227 0.000210767 8.31807e-05 0.000114779 0.000210767 0.00035198 0.000114779 0.000187037 8.31807e-05 0.000114779 4.11343e-05 2.05672e-05 0.000114779 0.000187037 2.05672e-05 0 4.84967e-05 8.8438e-05 7.80926e-05 0.000126738 8.8438e-05 0.000128379 0.000126738 0.000210056 7.80926e-05 0.000126738 0.000107688 0.000177194 0.000126738 0.000210056 0.000177194 0.000288762 2.6311e-05 6.69998e-05 3.98758e-05 7.50042e-05 6.69998e-05 0.000107688 7.50042e-05 0.00014491 3.98758e-05 7.50042e-05 5.34405e-05 9.266e-05 7.50042e-05 0.00014491 9.266e-05 0.000177224 0.000107688 0.000177194 0.00014491 0.000228397 0.000177194 0.000288762 0.000228397 0.000368744 0.00014491 0.000228397 0.000177224 0.000280495 0.000228397 0.000368744 0.000280495 0.000457582 5.34405e-05 9.266e-05 6.13526e-05 0.00010955 9.266e-05 0.000177224 0.00010955 0.000208545 6.13526e-05 0.00010955 6.92648e-05 0.000122254 0.00010955 0.000208545 0.000122254 0.000232888 0.000177224 0.000280495 0.000208545 0.00033087 0.000280495 0.000457582 0.00033087 0.000543348 0.000208545 0.00033087 0.000232888 0.000365757 0.00033087 0.000543348 0.000365757 0.000608423 0 0 0.000143381 0.000191891 0 0 0.000191891 0.000258745 0.000143381 0.000191891 0.000286762 0.000401102 0.000191891 0.000258745 0.000401102 0.000539826 0.000128379 0.000207571 0.000210056 0.000304097 0.000207571 0.000286762 0.000304097 0.000453276 0.000210056 0.000304097 0.000288762 0.000421238 0.000304097 0.000453276 0.000421238 0.000632741 0.000286762 0.000401102 0.000453276 0.000619106 0.000401102 0.000539826 0.000619106 0.000834876 0.000453276 0.000619106 0.000632741 0.00086924 0.000619106 0.000834876 0.00086924 0.00118995 0.00689724 0.00639282 0.00730686 0.00677104 0.00639282 0.00575617 0.00677104 0.00613662 0.00677104 0.00613662 0.00712597 0.00639698 0.00575617 0.0049852 0.00613662 0.00531247 0.0049852 0.00415044 0.00531247 0.00442473 0.00613662 0.00531247 0.00639698 0.00561192 0.00531247 0.00442473 0.00561192 0.0046044 0.00254245 0.00130706 0.00256926 0.00130082 0.00130706 0 0.00130082 0 0.00256926 0.00130082 0.00254419 0.0012721 0.00130082 0 0.0012721 0 0.00303523 0.0030577 0.00354567 0.00356905 0.0030577 0.00298569 0.00356905 0.00348744 0.00354567 0.00356905 0.00411026 0.0041426 0.00356905 0.00348744 0.0041426 0.00404594 0.00689907 0.00731155 0.00639698 0.00677181 0.00639698 0.00677181 0.00576087 0.00613958 0.00677181 0.00713342 0.00613958 0.00639754 0.00576087 0.00613958 0.00498754 0.00531455 0.00613958 0.00639754 0.00531455 0.00561439 0.00498754 0.00531455 0.00415216 0.00442693 0.00531455 0.00561439 0.00442693 0.00460611 0.00254326 0.00256997 0.00130747 0.00130119 0.00256997 0.00254479 0.00130119 0.0012724 0.00130747 0.00130119 0 0 0.00130119 0.0012724 0 0 0.00298569 0.00290883 0.00348744 0.00339894 0.00290883 0.00273419 0.00339894 0.00319506 0.00348744 0.00339894 0.00404594 0.00394588 0.00339894 0.00319506 0.00394588 0.00371032 0.00273419 0.00255546 0.00319506 0.00298405 0.00255546 0.0022814 0.00298405 0.00265812 0.00319506 0.00298405 0.00371032 0.00346562 0.00298405 0.00265812 0.00346562 0.00309116 0.0022814 0.00196254 0.00265812 0.00233266 0.00196254 0.00164368 0.00233266 0.00193333 0.00265812 0.00233266 0.00309116 0.00271461 0.00233266 0.00193333 0.00271461 0.00222298 0.00311097 0.00359604 0.00313262 0.00362139 0.00359604 0.00414769 0.00362139 0.00418245 0.00313262 0.00362139 0.0030661 0.00354281 0.00362139 0.00418245 0.00354281 0.00408878 0.00280254 0.0032434 0.00261031 0.00302488 0.0032434 0.00375034 0.00302488 0.00349966 0.00261031 0.00302488 0.002325 0.00269595 0.00302488 0.00349966 0.00269595 0.00311774 0.00379895 0.00254245 0.00382185 0.00256926 0.00492134 0.00382185 0.00483644 0.00376685 0.00382185 0.00256926 0.00376685 0.00254419 0.00376685 0.00254419 0.00367496 0.00245005 0.00367496 0.00245005 0.00347802 0.0023559 0.0049233 0.00483859 0.00382295 0.00376791 0.0038001 0.00382295 0.00254326 0.00256997 0.00382295 0.00376791 0.00256997 0.00254479 0.00376791 0.00367589 0.00254479 0.00245054 0.00367589 0.00347863 0.00245054 0.00235629 0.00399448 0.00328202 0.00328212 0.00267983 0.00347802 0.0023559 0.00325299 0.00216468 0.00325299 0.00216468 0.00291548 0.00197345 0.00373426 0.00291548 0.00328202 0.00255467 0.00291548 0.00197345 0.00255467 0.00169631 0.00328202 0.00255467 0.00267983 0.00210578 0.00255467 0.00169631 0.00210578 0.00141916 0.00415044 0.0032088 0.00442473 0.00337227 0.00347863 0.00325336 0.00235629 0.00216497 0.00325336 0.00291572 0.00216497 0.00197364 0.00242856 0.00122479 0.00251685 0.00125928 0.00122479 0 0.00125928 0 0.00125928 0 0.00130706 0 0.00415216 0.00442693 0.00321076 0.00337383 0.00373447 0.00328212 0.00291572 0.0025548 0.00328212 0.00267983 0.0025548 0.00210583 0.00291572 0.0025548 0.00197364 0.00169643 0.0025548 0.00210583 0.00169643 0.00141921 0.00242956 0.00251775 0.00122528 0.00125972 0.00122528 0.00125972 0 0 0.00125972 0.00130747 0 0 0.00141916 0.000709582 0.00110788 0.000547794 0.000709582 0 0.000547794 0 0.00110788 0.000547794 0.000748137 0.000374068 0.000547794 0 0.000374068 0 0.00141921 0.0011079 0.000709607 0.000547804 0.0011079 0.000748137 0.000547804 0.000374068 0.000709607 0.000547804 0 0 0.000547804 0.000374068 0 0 0.00727694 0.0076103 0.00761128 0.00799278 0.00461785 0.00446505 0.00521267 0.00505788 0.00446505 0.00423522 0.00505788 0.00478661 0.00521267 0.00505788 0.00580849 0.00559282 0.00505788 0.00478661 0.00559282 0.00534005 0.00580849 0.00559282 0.00639308 0.00620117 0.00559282 0.00534005 0.00620117 0.00587846 0.00645725 0.00639308 0.00707377 0.0069347 0.00700936 0.00707377 0.00757526 0.00755666 0.00707377 0.0069347 0.00755666 0.00750032 0.00639308 0.00620117 0.0069347 0.00675474 0.00620117 0.00587846 0.00675474 0.00637313 0.0069347 0.00675474 0.00750032 0.00722477 0.00675474 0.00637313 0.00722477 0.00689724 0.00393555 0.00353128 0.00441828 0.00400544 0.00541856 0.00491616 0.00593627 0.00534876 0.00637313 0.00593627 0.00689724 0.00639282 0.00593627 0.00534876 0.00639282 0.00575617 0.00464252 0.00523136 0.00449357 0.00507556 0.00396108 0.00449357 0.00375034 0.00425709 0.00449357 0.00507556 0.00425709 0.00480534 0.00701457 0.00757939 0.00707974 0.00756057 0.00646555 0.00707974 0.00640033 0.00694113 0.00707974 0.00756057 0.00694113 0.00750362 0.00523136 0.00581916 0.00507556 0.00561626 0.00581916 0.00640033 0.00561626 0.00621026 0.00507556 0.00561626 0.00480534 0.00533108 0.00561626 0.00621026 0.00533108 0.00588328 0.00640033 0.00694113 0.00621026 0.00676002 0.00694113 0.00750362 0.00676002 0.00722774 0.00621026 0.00676002 0.00588328 0.0063821 0.00676002 0.00722774 0.0063821 0.00689907 0.00425709 0.00480534 0.00394678 0.00446256 0.00394678 0.00446256 0.00355549 0.00401307 0.00355549 0.00401307 0.00309377 0.00346899 0.00480534 0.00533108 0.00446256 0.00493831 0.00533108 0.00588328 0.00493831 0.00546839 0.00446256 0.00493831 0.00401307 0.00446595 0.00493831 0.00546839 0.00446595 0.0049095 0.00588328 0.0063821 0.00546839 0.005928 0.0063821 0.00689907 0.005928 0.00639698 0.00546839 0.005928 0.0049095 0.00534806 0.005928 0.00639698 0.00534806 0.00576087 0.0057591 0.00588511 0.00635935 0.00646916 0.00217566 0.00108783 0.0023052 0.00116122 0.00108783 0 0.00116122 0 0.0023052 0.00116122 0.00242856 0.00122479 0.00116122 0 0.00122479 0 0.00635935 0.00646916 0.0069074 0.00700936 0.0069074 0.00700936 0.00740553 0.00757526 0.00217682 0.00230629 0.00108841 0.00116175 0.00230629 0.00242956 0.00116175 0.00122528 0.00108841 0.00116175 0 0 0.00116175 0.00122528 0 0 0.00286823 0.00222751 0.00321288 0.00245601 0.00222751 0.00149524 0.00245601 0.00167154 0.00321288 0.00245601 0.00353028 0.00272839 0.00245601 0.00167154 0.00272839 0.00185193 0.00353028 0.00272839 0.0038537 0.00296009 0.00272839 0.00185193 0.00296009 0.0020138 0.0038537 0.00296009 0.00415044 0.0032088 0.00296009 0.0020138 0.0032088 0.00217566 0.002325 0.00269595 0.00204166 0.00236576 0.00269595 0.00311774 0.00236576 0.00273795 0.00204166 0.00236576 0.00167559 0.00195955 0.00236576 0.00273795 0.00195955 0.00224351 0.00577069 0.00636694 0.00589724 0.00647727 0.00636694 0.00691212 0.00647727 0.00701457 0.00691212 0.00740857 0.00701457 0.00757939 0.00287707 0.00321749 0.00223418 0.00245905 0.00321749 0.00353802 0.00245905 0.00273502 0.00223418 0.00245905 0.00149981 0.00167393 0.00245905 0.00273502 0.00167393 0.00185324 0.00353802 0.00385429 0.00273502 0.00296003 0.00385429 0.00415216 0.00296003 0.00321076 0.00273502 0.00296003 0.00185324 0.00201503 0.00296003 0.00321076 0.00201503 0.00217682 0.00291246 0.00301953 0.00342434 0.00351578 0.00301953 0.00303523 0.00351578 0.00354567 0.00342434 0.00351578 0.00393622 0.00407231 0.00351578 0.00354567 0.00407231 0.00411026 0.00357953 0.00375787 0.00407089 0.00430013 0.00375787 0.00393622 0.00430013 0.00446355 0.00407089 0.00430013 0.00456225 0.00484119 0.00430013 0.00446355 0.00484119 0.00503159 0.00393622 0.00407231 0.00446355 0.00462508 0.00407231 0.00411026 0.00462508 0.00467085 0.00446355 0.00462508 0.00503159 0.00521772 0.00462508 0.00467085 0.00521772 0.00527279 0.00456225 0.00484119 0.00506303 0.00537732 0.00484119 0.00503159 0.00537732 0.00559296 0.00506303 0.00537732 0.00555556 0.00590133 0.00537732 0.00559296 0.00590133 0.00614316 0.00555556 0.00590133 0.00603804 0.00642031 0.00590133 0.00614316 0.00642031 0.0066907 0.00603804 0.00642031 0.00645561 0.00687358 0.00642031 0.0066907 0.00687358 0.00716896 0.00222298 0.00169706 0.00252811 0.00196567 0.00169706 0.00117113 0.00196567 0.00131899 0.00252811 0.00196567 0.00286823 0.00222751 0.00196567 0.00131899 0.00222751 0.00149524 0.00117113 0.000585567 0.00131899 0.000675572 0.000585567 0 0.000675572 0 0.00131899 0.000675572 0.00149524 0.000763331 0.000675572 0 0.000763331 0 0.00149524 0.000763331 0.00167154 0.000852219 0.000763331 0 0.000852219 0 0.00167154 0.000852219 0.00185193 0.000925965 0.000852219 0 0.000925965 0 0.00361133 0.00409375 0.00379168 0.00432292 0.00409375 0.00457617 0.00432292 0.00485734 0.00379168 0.00432292 0.00397204 0.00448736 0.00432292 0.00485734 0.00448736 0.00504844 0.0029825 0.00347727 0.00309284 0.00356699 0.00347727 0.00397204 0.00356699 0.00411017 0.00309284 0.00356699 0.00311097 0.00359604 0.00356699 0.00411017 0.00359604 0.00414769 0.00397204 0.00448736 0.00411017 0.00464979 0.00448736 0.00504844 0.00464979 0.00523545 0.00411017 0.00464979 0.00414769 0.00469576 0.00464979 0.00523545 0.00469576 0.00529106 0.00457617 0.00507104 0.00485734 0.00538693 0.00507104 0.00556028 0.00538693 0.00590756 0.00485734 0.00538693 0.00504844 0.00560339 0.00538693 0.00590756 0.00560339 0.00615027 0.00556028 0.00603971 0.00590756 0.00642344 0.00603971 0.00645561 0.00642344 0.00687504 0.00590756 0.00642344 0.00615027 0.00669469 0.00642344 0.00687504 0.00669469 0.00717124 0.00224351 0.00254113 0.00171202 0.00197552 0.00254113 0.00287707 0.00197552 0.00223418 0.00171202 0.00197552 0.00118052 0.00132549 0.00197552 0.00223418 0.00132549 0.00149981 0.00118052 0.00132549 0.000590261 0.000678807 0.00132549 0.00149981 0.000678807 0.000765666 0.000590261 0.000678807 0 0 0.000678807 0.000765666 0 0 0.00203118 0.0020746 0.00247182 0.00252856 0.0020746 0.00211802 0.00252856 0.00256642 0.00247182 0.00252856 0.00291246 0.00301953 0.00252856 0.00256642 0.00301953 0.00303523 0.00149981 0.00167393 0.000765666 0.000853602 0.00167393 0.00185324 0.000853602 0.000926618 0.000765666 0.000853602 0 0 0.000853602 0.000926618 0 0 0.00395411 0.00425818 0.00437386 0.00474644 0.00425818 0.00456225 0.00474644 0.00506303 0.00437386 0.00474644 0.00479362 0.00520252 0.00474644 0.00506303 0.00520252 0.00555556 0.00211802 0.00209796 0.00256642 0.0025574 0.00209796 0.00207791 0.0025574 0.0025235 0.00207791 0.00199092 0.0025235 0.00242892 0.00199092 0.00190393 0.00242892 0.00231189 0.00396309 0.00437835 0.00426963 0.00475279 0.00437835 0.00479362 0.00475279 0.00520567 0.00426963 0.00475279 0.00457617 0.00507104 0.00475279 0.00520567 0.00507104 0.00556028 0.00479362 0.00520252 0.00520567 0.00565303 0.00520252 0.00555556 0.00565303 0.00603804 0.00520567 0.00565303 0.00556028 0.00603971 0.00565303 0.00603804 0.00603971 0.00645561 0.00190393 0.00174084 0.00231189 0.0021318 0.00174084 0.00157775 0.0021318 0.00192958 0.0021318 0.00192958 0.00255546 0.0022814 0.000637763 0.000626325 0.000952023 0.000959213 0.000626325 0.000614887 0.000959213 0.000953643 0.000952023 0.000959213 0.00132337 0.00130789 0.000959213 0.000953643 0.00130789 0.0012924 0.000594437 0.000761064 0.000559098 0.000684811 0.000761064 0.000927691 0.000684811 0.000849229 0.000559098 0.000684811 0.000493234 0.000604471 0.000684811 0.000849229 0.000604471 0.000770768 0.000493234 0.000604471 0.000422607 0.000530095 0.000604471 0.000770768 0.000530095 0.000658838 0.000422607 0.000530095 0.00035198 0.000449445 0.000530095 0.000658838 0.000449445 0.000546909 0.000854494 0.000935203 0.00110159 0.00119605 0.000935203 0.00101591 0.00119605 0.00131664 0.00110159 0.00119605 0.00134869 0.00148303 0.00119605 0.00131664 0.00148303 0.00161738 0.00118995 0.00136155 0.00137371 0.00156449 0.00136155 0.00153316 0.00156449 0.00178954 0.00137371 0.00156449 0.00156815 0.00179513 0.00156449 0.00178954 0.00179513 0.00204593 0.00156815 0.00179513 0.0017701 0.00202455 0.00179513 0.00204593 0.00202455 0.00231656 0.0017701 0.00202455 0.00196637 0.00227678 0.00202455 0.00231656 0.00227678 0.0025872 0.000606863 0.000622313 0.000937798 0.000950213 0.000622313 0.000637763 0.000950213 0.000952023 0.000937798 0.000950213 0.00126873 0.00129605 0.000950213 0.000952023 0.00129605 0.00132337 0.000562867 0.000515457 0.000871675 0.000795073 0.000515457 0.000468046 0.000795073 0.000722995 0.000871675 0.000795073 0.00118048 0.00107921 0.000795073 0.000722995 0.00107921 0.000977945 0.00216215 0.00257232 0.00220929 0.00262928 0.00257232 0.0029825 0.00262928 0.00309284 0.00220929 0.00262928 0.00225643 0.0026712 0.000702426 0.000534715 0.000916669 0.000697997 0.000534715 0.000367004 0.000697997 0.00047571 0.000916669 0.000697997 0.00113091 0.000884217 0.000697997 0.00047571 0.