<?xml version="1.0" ?> 
<!-- 
# vtk DataFile Version 3.0
#This file was generated by the deal.II library on 21:46:13 at 2021/4/29
-->
<VTKFile type="UnstructuredGrid" version="0.1" byte_order="LittleEndian">
<UnstructuredGrid>
<Piece NumberOfPoints="65536" NumberOfCells="16384" >
  <Points>
    <DataArray type="Float32" NumberOfComponents="3" format="ascii">
-1 -1 0
-0.984375 -1 0
-1 -0.984375 0
-0.984375 -0.984375 0
-0.984375 -1 0
-0.96875 -1 0
-0.984375 -0.984375 0
-0.96875 -0.984375 0
-1 -0.984375 0
-0.984375 -0.984375 0
-1 -0.96875 0
-0.984375 -0.96875 0
-0.984375 -0.984375 0
-0.96875 -0.984375 0
-0.984375 -0.96875 0
-0.96875 -0.96875 0
-0.96875 -1 0
-0.953125 -1 0
-0.96875 -0.984375 0
-0.953125 -0.984375 0
-0.953125 -1 0
-0.9375 -1 0
-0.953125 -0.984375 0
-0.9375 -0.984375 0
-0.96875 -0.984375 0
-0.953125 -0.984375 0
-0.96875 -0.96875 0
-0.953125 -0.96875 0
-0.953125 -0.984375 0
-0.9375 -0.984375 0
-0.953125 -0.96875 0
-0.9375 -0.96875 0
-1 -0.96875 0
-0.984375 -0.96875 0
-1 -0.953125 0
-0.984375 -0.953125 0
-0.984375 -0.96875 0
-0.96875 -0.96875 0
-0.984375 -0.953125 0
-0.96875 -0.953125 0
-1 -0.953125 0
-0.984375 -0.953125 0
-1 -0.9375 0
-0.984375 -0.9375 0
-0.984375 -0.953125 0
-0.96875 -0.953125 0
-0.984375 -0.9375 0
-0.96875 -0.9375 0
-0.96875 -0.96875 0
-0.953125 -0.96875 0
-0.96875 -0.953125 0
-0.953125 -0.953125 0
-0.953125 -0.96875 0
-0.9375 -0.96875 0
-0.953125 -0.953125 0
-0.9375 -0.953125 0
-0.96875 -0.953125 0
-0.953125 -0.953125 0
-0.96875 -0.9375 0
-0.953125 -0.9375 0
-0.953125 -0.953125 0
-0.9375 -0.953125 0
-0.953125 -0.9375 0
-0.9375 -0.9375 0
-0.9375 -1 0
-0.921875 -1 0
-0.9375 -0.984375 0
-0.921875 -0.984375 0
-0.921875 -1 0
-0.90625 -1 0
-0.921875 -0.984375 0
-0.90625 -0.984375 0
-0.9375 -0.984375 0
-0.921875 -0.984375 0
-0.9375 -0.96875 0
-0.921875 -0.96875 0
-0.921875 -0.984375 0
-0.90625 -0.984375 0
-0.921875 -0.96875 0
-0.90625 -0.96875 0
-0.90625 -1 0
-0.890625 -1 0
-0.90625 -0.984375 0
-0.890625 -0.984375 0
-0.890625 -1 0
-0.875 -1 0
-0.890625 -0.984375 0
-0.875 -0.984375 0
-0.90625 -0.984375 0
-0.890625 -0.984375 0
-0.90625 -0.96875 0
-0.890625 -0.96875 0
-0.890625 -0.984375 0
-0.875 -0.984375 0
-0.890625 -0.96875 0
-0.875 -0.96875 0
-0.9375 -0.96875 0
-0.921875 -0.96875 0
-0.9375 -0.953125 0
-0.921875 -0.953125 0
-0.921875 -0.96875 0
-0.90625 -0.96875 0
-0.921875 -0.953125 0
-0.90625 -0.953125 0
-0.9375 -0.953125 0
-0.921875 -0.953125 0
-0.9375 -0.9375 0
-0.921875 -0.9375 0
-0.921875 -0.953125 0
-0.90625 -0.953125 0
-0.921875 -0.9375 0
-0.90625 -0.9375 0
-0.90625 -0.96875 0
-0.890625 -0.96875 0
-0.90625 -0.953125 0
-0.890625 -0.953125 0
-0.890625 -0.96875 0
-0.875 -0.96875 0
-0.890625 -0.953125 0
-0.875 -0.953125 0
-0.90625 -0.953125 0
-0.890625 -0.953125 0
-0.90625 -0.9375 0
-0.890625 -0.9375 0
-0.890625 -0.953125 0
-0.875 -0.953125 0
-0.890625 -0.9375 0
-0.875 -0.9375 0
-1 -0.9375 0
-0.984375 -0.9375 0
-1 -0.921875 0
-0.984375 -0.921875 0
-0.984375 -0.9375 0
-0.96875 -0.9375 0
-0.984375 -0.921875 0
-0.96875 -0.921875 0
-1 -0.921875 0
-0.984375 -0.921875 0
-1 -0.90625 0
-0.984375 -0.90625 0
-0.984375 -0.921875 0
-0.96875 -0.921875 0
-0.984375 -0.90625 0
-0.96875 -0.90625 0
-0.96875 -0.9375 0
-0.953125 -0.9375 0
-0.96875 -0.921875 0
-0.953125 -0.921875 0
-0.953125 -0.9375 0
-0.9375 -0.9375 0
-0.953125 -0.921875 0
-0.9375 -0.921875 0
-0.96875 -0.921875 0
-0.953125 -0.921875 0
-0.96875 -0.90625 0
-0.953125 -0.90625 0
-0.953125 -0.921875 0
-0.9375 -0.921875 0
-0.953125 -0.90625 0
-0.9375 -0.90625 0
-1 -0.90625 0
-0.984375 -0.90625 0
-1 -0.890625 0
-0.984375 -0.890625 0
-0.984375 -0.90625 0
-0.96875 -0.90625 0
-0.984375 -0.890625 0
-0.96875 -0.890625 0
-1 -0.890625 0
-0.984375 -0.890625 0
-1 -0.875 0
-0.984375 -0.875 0
-0.984375 -0.890625 0
-0.96875 -0.890625 0
-0.984375 -0.875 0
-0.96875 -0.875 0
-0.96875 -0.90625 0
-0.953125 -0.90625 0
-0.96875 -0.890625 0
-0.953125 -0.890625 0
-0.953125 -0.90625 0
-0.9375 -0.90625 0
-0.953125 -0.890625 0
-0.9375 -0.890625 0
-0.96875 -0.890625 0
-0.953125 -0.890625 0
-0.96875 -0.875 0
-0.953125 -0.875 0
-0.953125 -0.890625 0
-0.9375 -0.890625 0
-0.953125 -0.875 0
-0.9375 -0.875 0
-0.9375 -0.9375 0
-0.921875 -0.9375 0
-0.9375 -0.921875 0
-0.921875 -0.921875 0
-0.921875 -0.9375 0
-0.90625 -0.9375 0
-0.921875 -0.921875 0
-0.90625 -0.921875 0
-0.9375 -0.921875 0
-0.921875 -0.921875 0
-0.9375 -0.90625 0
-0.921875 -0.90625 0
-0.921875 -0.921875 0
-0.90625 -0.921875 0
-0.921875 -0.90625 0
-0.90625 -0.90625 0
-0.90625 -0.9375 0
-0.890625 -0.9375 0
-0.90625 -0.921875 0
-0.890625 -0.921875 0
-0.890625 -0.9375 0
-0.875 -0.9375 0
-0.890625 -0.921875 0
-0.875 -0.921875 0
-0.90625 -0.921875 0
-0.890625 -0.921875 0
-0.90625 -0.90625 0
-0.890625 -0.90625 0
-0.890625 -0.921875 0
-0.875 -0.921875 0
-0.890625 -0.90625 0
-0.875 -0.90625 0
-0.9375 -0.90625 0
-0.921875 -0.90625 0
-0.9375 -0.890625 0
-0.921875 -0.890625 0
-0.921875 -0.90625 0
-0.90625 -0.90625 0
-0.921875 -0.890625 0
-0.90625 -0.890625 0
-0.9375 -0.890625 0
-0.921875 -0.890625 0
-0.9375 -0.875 0
-0.921875 -0.875 0
-0.921875 -0.890625 0
-0.90625 -0.890625 0
-0.921875 -0.875 0
-0.90625 -0.875 0
-0.90625 -0.90625 0
-0.890625 -0.90625 0
-0.90625 -0.890625 0
-0.890625 -0.890625 0
-0.890625 -0.90625 0
-0.875 -0.90625 0
-0.890625 -0.890625 0
-0.875 -0.890625 0
-0.90625 -0.890625 0
-0.890625 -0.890625 0
-0.90625 -0.875 0
-0.890625 -0.875 0
-0.890625 -0.890625 0
-0.875 -0.890625 0
-0.890625 -0.875 0
-0.875 -0.875 0
-0.875 -1 0
-0.859375 -1 0
-0.875 -0.984375 0
-0.859375 -0.984375 0
-0.859375 -1 0
-0.84375 -1 0
-0.859375 -0.984375 0
-0.84375 -0.984375 0
-0.875 -0.984375 0
-0.859375 -0.984375 0
-0.875 -0.96875 0
-0.859375 -0.96875 0
-0.859375 -0.984375 0
-0.84375 -0.984375 0
-0.859375 -0.96875 0
-0.84375 -0.96875 0
-0.84375 -1 0
-0.828125 -1 0
-0.84375 -0.984375 0
-0.828125 -0.984375 0
-0.828125 -1 0
-0.8125 -1 0
-0.828125 -0.984375 0
-0.8125 -0.984375 0
-0.84375 -0.984375 0
-0.828125 -0.984375 0
-0.84375 -0.96875 0
-0.828125 -0.96875 0
-0.828125 -0.984375 0
-0.8125 -0.984375 0
-0.828125 -0.96875 0
-0.8125 -0.96875 0
-0.875 -0.96875 0
-0.859375 -0.96875 0
-0.875 -0.953125 0
-0.859375 -0.953125 0
-0.859375 -0.96875 0
-0.84375 -0.96875 0
-0.859375 -0.953125 0
-0.84375 -0.953125 0
-0.875 -0.953125 0
-0.859375 -0.953125 0
-0.875 -0.9375 0
-0.859375 -0.9375 0
-0.859375 -0.953125 0
-0.84375 -0.953125 0
-0.859375 -0.9375 0
-0.84375 -0.9375 0
-0.84375 -0.96875 0
-0.828125 -0.96875 0
-0.84375 -0.953125 0
-0.828125 -0.953125 0
-0.828125 -0.96875 0
-0.8125 -0.96875 0
-0.828125 -0.953125 0
-0.8125 -0.953125 0
-0.84375 -0.953125 0
-0.828125 -0.953125 0
-0.84375 -0.9375 0
-0.828125 -0.9375 0
-0.828125 -0.953125 0
-0.8125 -0.953125 0
-0.828125 -0.9375 0
-0.8125 -0.9375 0
-0.8125 -1 0
-0.796875 -1 0
-0.8125 -0.984375 0
-0.796875 -0.984375 0
-0.796875 -1 0
-0.78125 -1 0
-0.796875 -0.984375 0
-0.78125 -0.984375 0
-0.8125 -0.984375 0
-0.796875 -0.984375 0
-0.8125 -0.96875 0
-0.796875 -0.96875 0
-0.796875 -0.984375 0
-0.78125 -0.984375 0
-0.796875 -0.96875 0
-0.78125 -0.96875 0
-0.78125 -1 0
-0.765625 -1 0
-0.78125 -0.984375 0
-0.765625 -0.984375 0
-0.765625 -1 0
-0.75 -1 0
-0.765625 -0.984375 0
-0.75 -0.984375 0
-0.78125 -0.984375 0
-0.765625 -0.984375 0
-0.78125 -0.96875 0
-0.765625 -0.96875 0
-0.765625 -0.984375 0
-0.75 -0.984375 0
-0.765625 -0.96875 0
-0.75 -0.96875 0
-0.8125 -0.96875 0
-0.796875 -0.96875 0
-0.8125 -0.953125 0
-0.796875 -0.953125 0
-0.796875 -0.96875 0
-0.78125 -0.96875 0
-0.796875 -0.953125 0
-0.78125 -0.953125 0
-0.8125 -0.953125 0
-0.796875 -0.953125 0
-0.8125 -0.9375 0
-0.796875 -0.9375 0
-0.796875 -0.953125 0
-0.78125 -0.953125 0
-0.796875 -0.9375 0
-0.78125 -0.9375 0
-0.78125 -0.96875 0
-0.765625 -0.96875 0
-0.78125 -0.953125 0
-0.765625 -0.953125 0
-0.765625 -0.96875 0
-0.75 -0.96875 0
-0.765625 -0.953125 0
-0.75 -0.953125 0
-0.78125 -0.953125 0
-0.765625 -0.953125 0
-0.78125 -0.9375 0
-0.765625 -0.9375 0
-0.765625 -0.953125 0
-0.75 -0.953125 0
-0.765625 -0.9375 0
-0.75 -0.9375 0
-0.875 -0.9375 0
-0.859375 -0.9375 0
-0.875 -0.921875 0
-0.859375 -0.921875 0
-0.859375 -0.9375 0
-0.84375 -0.9375 0
-0.859375 -0.921875 0
-0.84375 -0.921875 0
-0.875 -0.921875 0
-0.859375 -0.921875 0
-0.875 -0.90625 0
-0.859375 -0.90625 0
-0.859375 -0.921875 0
-0.84375 -0.921875 0
-0.859375 -0.90625 0
-0.84375 -0.90625 0
-0.84375 -0.9375 0
-0.828125 -0.9375 0
-0.84375 -0.921875 0
-0.828125 -0.921875 0
-0.828125 -0.9375 0
-0.8125 -0.9375 0
-0.828125 -0.921875 0
-0.8125 -0.921875 0
-0.84375 -0.921875 0
-0.828125 -0.921875 0
-0.84375 -0.90625 0
-0.828125 -0.90625 0
-0.828125 -0.921875 0
-0.8125 -0.921875 0
-0.828125 -0.90625 0
-0.8125 -0.90625 0
-0.875 -0.90625 0
-0.859375 -0.90625 0
-0.875 -0.890625 0
-0.859375 -0.890625 0
-0.859375 -0.90625 0
-0.84375 -0.90625 0
-0.859375 -0.890625 0
-0.84375 -0.890625 0
-0.875 -0.890625 0
-0.859375 -0.890625 0
-0.875 -0.875 0
-0.859375 -0.875 0
-0.859375 -0.890625 0
-0.84375 -0.890625 0
-0.859375 -0.875 0
-0.84375 -0.875 0
-0.84375 -0.90625 0
-0.828125 -0.90625 0
-0.84375 -0.890625 0
-0.828125 -0.890625 0
-0.828125 -0.90625 0
-0.8125 -0.90625 0
-0.828125 -0.890625 0
-0.8125 -0.890625 0
-0.84375 -0.890625 0
-0.828125 -0.890625 0
-0.84375 -0.875 0
-0.828125 -0.875 0
-0.828125 -0.890625 0
-0.8125 -0.890625 0
-0.828125 -0.875 0
-0.8125 -0.875 0
-0.8125 -0.9375 0
-0.796875 -0.9375 0
-0.8125 -0.921875 0
-0.796875 -0.921875 0
-0.796875 -0.9375 0
-0.78125 -0.9375 0
-0.796875 -0.921875 0
-0.78125 -0.921875 0
-0.8125 -0.921875 0
-0.796875 -0.921875 0
-0.8125 -0.90625 0
-0.796875 -0.90625 0
-0.796875 -0.921875 0
-0.78125 -0.921875 0
-0.796875 -0.90625 0
-0.78125 -0.90625 0
-0.78125 -0.9375 0
-0.765625 -0.9375 0
-0.78125 -0.921875 0
-0.765625 -0.921875 0
-0.765625 -0.9375 0
-0.75 -0.9375 0
-0.765625 -0.921875 0
-0.75 -0.921875 0
-0.78125 -0.921875 0
-0.765625 -0.921875 0
-0.78125 -0.90625 0
-0.765625 -0.90625 0
-0.765625 -0.921875 0
-0.75 -0.921875 0
-0.765625 -0.90625 0
-0.75 -0.90625 0
-0.8125 -0.90625 0
-0.796875 -0.90625 0
-0.8125 -0.890625 0
-0.796875 -0.890625 0
-0.796875 -0.90625 0
[...]
  <PointData Scalars="scalars">
    <DataArray type="Float32" Name="U" format="ascii">
0 0 0 0.00881656 0 0 0.00881656 0.0172654 0 0.00881656 0 0.0176317 0.00881656 0.0172654 0.0176317 0.0345131 0 0 0.0172654 0.0249282 0 0 0.0249282 0.0314046 0.0172654 0.0249282 0.0345131 0.0498484 0.0249282 0.0314046 0.0498484 0.0627701 0 0.0176317 0 0.0264074 0.0176317 0.0345131 0.0264074 0.0516915 0 0.0264074 0 0.0351411 0.0264074 0.0516915 0.0351411 0.0687838 0.0345131 0.0498484 0.0516915 0.0746341 0.0498484 0.0627701 0.0746341 0.0939775 0.0516915 0.0746341 0.0687838 0.099282 0.0746341 0.0939775 0.099282 0.125001 0 0 0.0314046 0.0363106 0 0 0.0363106 0.03952 0.0314046 0.0363106 0.0627701 0.0726095 0.0363106 0.03952 0.0726095 0.0789889 0 0 0.03952 0.0410904 0 0 0.0410904 0.041424 0.03952 0.0410904 0.0789889 0.0821754 0.0410904 0.041424 0.0821754 0.0827813 0.0627701 0.0726095 0.0939775 0.108669 0.0726095 0.0789889 0.108669 0.118226 0.0939775 0.108669 0.125001 0.144505 0.108669 0.118226 0.144505 0.157213 0.0789889 0.0821754 0.118226 0.122952 0.0821754 0.0827813 0.122952 0.123885 0.118226 0.122952 0.157213 0.163464 0.122952 0.123885 0.163464 0.164682 0 0.0351411 0 0.0438109 0.0351411 0.0687838 0.0438109 0.0857162 0 0.0438109 0 0.0524032 0.0438109 0.0857162 0.0524032 0.102511 0.0687838 0.099282 0.0857162 0.123708 0.099282 0.125001 0.123708 0.155665 0.0857162 0.123708 0.102511 0.147878 0.123708 0.155665 0.147878 0.186034 0 0.0524032 0 0.0609068 0.0524032 0.102511 0.0609068 0.119117 0 0.0609068 0 0.0693177 0.0609068 0.119117 0.0693177 0.135494 0.102511 0.147878 0.119117 0.171741 0.147878 0.186034 0.171741 0.215972 0.119117 0.171741 0.135494 0.195286 0.171741 0.215972 0.195286 0.245407 0.125001 0.144505 0.155665 0.179941 0.144505 0.157213 0.179941 0.195668 0.155665 0.179941 0.186034 0.214955 0.179941 0.195668 0.214955 0.233733 0.157213 0.163464 0.195668 0.203463 0.163464 0.164682 0.203463 0.204855 0.195668 0.203463 0.233733 0.24296 0.203463 0.204855 0.24296 0.244614 0.186034 0.214955 0.215972 0.249426 0.214955 0.233733 0.249426 0.271158 0.215972 0.249426 0.245407 0.283346 0.249426 0.271158 0.283346 0.307874 0.233733 0.24296 0.271158 0.281775 0.24296 0.244614 0.281775 0.283625 0.271158 0.281775 0.307874 0.319926 0.281775 0.283625 0.319926 0.321839 0 0 0.041424 0.0408739 0 0 0.0408739 0.0397484 0.041424 0.0408739 0.0827813 0.0817182 0.0408739 0.0397484 0.0817182 0.0793566 0 0 0.0397484 0.0378289 0 0 0.0378289 0.0346843 0.0397484 0.0378289 0.0793566 0.0755362 0.0378289 0.0346843 0.0755362 0.0691276 0.0827813 0.0817182 0.123885 0.122231 0.0817182 0.0793566 0.122231 0.118732 0.123885 0.122231 0.164682 0.16239 0.122231 0.118732 0.16239 0.157617 0.0793566 0.0755362 0.118732 0.112938 0.0755362 0.0691276 0.112938 0.103441 0.118732 0.112938 0.157617 0.149764 0.112938 0.103441 0.149764 0.137033 0 0 0.0346843 0.0296194 0 0 0.0296194 0.0224496 0.0346843 0.0296194 0.0691276 0.0590793 0.0296194 0.0224496 0.0590793 0.0447345 0 0 0.0224496 0.0135384 0 0 0.0135384 0.00411273 0.0224496 0.0135384 0.0447345 0.0271281 0.0135384 0.00411273 0.0271281 0.00838077 0.0691276 0.0590793 0.103441 0.0883862 0.0590793 0.0447345 0.0883862 0.0671262 0.103441 0.0883862 0.137033 0.117086 0.0883862 0.0671262 0.117086 0.089043 0.0447345 0.0271281 0.0671262 0.0408042 0.0271281 0.00838077 0.0408042 0.0129393 0.0671262 0.0408042 0.089043 0.0545311 0.0408042 0.0129393 0.0545311 0.0178723 0.164682 0.16239 0.204855 0.201985 0.16239 0.157617 0.201985 0.195833 0.204855 0.201985 0.244614 0.240983 0.201985 0.195833 0.240983 0.233504 0.157617 0.149764 0.195833 0.186018 0.149764 0.137033 0.186018 0.170044 0.195833 0.186018 0.233504 0.221446 0.186018 0.170044 0.221446 0.202361 0.244614 0.240983 0.283625 0.279239 0.240983 0.233504 0.279239 0.270332 0.283625 0.279239 0.321839 0.316745 0.279239 0.270332 0.316745 0.306211 0.233504 0.221446 0.270332 0.256105 0.221446 0.202361 0.256105 0.233864 0.270332 0.256105 0.306211 0.289801 0.256105 0.233864 0.289801 0.264277 0.137033 0.117086 0.170044 0.145443 0.117086 0.089043 0.145443 0.110811 0.170044 0.145443 0.202361 0.173022 0.145443 0.110811 0.173022 0.132371 0.089043 0.0545311 0.110811 0.0684328 0.0545311 0.0178723 0.0684328 0.0232195 0.110811 0.0684328 0.132371 0.0824788 0.0684328 0.0232195 0.0824788 0.0295381 0.202361 0.173022 0.233864 0.200141 0.173022 0.132371 0.200141 0.153652 0.233864 0.200141 0.264277 0.226368 0.200141 0.153652 0.226368 0.174384 0.132371 0.0824788 0.153652 0.0969303 0.0824788 0.0295381 0.0969303 0.0364485 0.153652 0.0969303 0.174384 0.111421 0.0969303 0.0364485 0.111421 0.0440663 0 0.0693177 0 0.0776114 0.0693177 0.135494 0.0776114 0.15165 0 0.0776114 0 0.0857721 0.0776114 0.15165 0.0857721 0.167524 0.135494 0.195286 0.15165 0.218424 0.195286 0.245407 0.218424 0.274329 0.15165 0.218424 0.167524 0.241112 0.218424 0.274329 0.241112 0.302626 0 0.0857721 0 0.0938132 0.0857721 0.167524 0.0938132 0.183118 0 0.0938132 0 0.101703 0.0938132 0.183118 0.101703 0.198401 0.167524 0.241112 0.183118 0.263371 0.241112 0.302626 0.263371 0.330271 0.183118 0.263371 0.198401 0.285108 0.263371 0.330271 0.285108 0.35721 0.245407 0.283346 0.274329 0.316537 0.283346 0.307874 0.316537 0.343833 0.274329 0.316537 0.302626 0.348956 0.316537 0.343833 0.348956 0.378906 0.307874 0.319926 0.343833 0.357134 0.319926 0.321839 0.357134 0.359182 0.343833 0.357134 0.378906 0.39343 0.357134 0.359182 0.39343 0.395569 0.302626 0.348956 0.330271 0.380592 0.348956 0.378906 0.380592 0.413008 0.330271 0.380592 0.35721 0.411304 0.380592 0.413008 0.411304 0.446092 0.378906 0.39343 0.413008 0.428723 0.39343 0.395569 0.428723 0.430845 0.413008 0.428723 0.446092 0.462881 0.428723 0.430845 0.462881 0.46502 0 0.101703 0 0.109417 0.101703 0.198401 0.109417 0.213308 0 0.109417 0 0.116952 0.109417 0.213308 0.116952 0.227836 0.198401 0.285108 0.213308 0.306239 0.285108 0.35721 0.306239 0.383293 0.213308 0.306239 0.227836 0.326751 0.306239 0.383293 0.326751 0.408507 0 0.116952 0 0.124319 0.116952 0.227836 0.124319 0.241994 0 0.124319 0 0.131516 0.124319 0.241994 0.131516 0.255783 0.227836 0.326751 0.241994 0.346669 0.326751 0.408507 0.346669 0.432869 0.241994 0.346669 0.255783 0.36598 0.346669 0.432869 0.36598 0.456359 0.35721 0.411304 0.383293 0.440934 0.411304 0.446092 0.440934 0.477907 0.383293 0.440934 0.408507 0.469451 0.440934 0.477907 0.469451 0.508438 0.446092 0.462881 0.477907 0.495676 0.462881 0.46502 0.495676 0.497773 0.477907 0.495676 0.508438 0.52707 0.495676 0.497773 0.52707 0.529108 0.408507 0.469451 0.432869 0.496899 0.469451 0.508438 0.496899 0.537716 0.432869 0.496899 0.456359 0.523226 0.496899 0.537716 0.523226 0.565679 0.508438 0.52707 0.537716 0.557154 0.52707 0.529108 0.557154 0.559112 0.537716 0.557154 0.565679 0.585809 0.557154 0.559112 0.585809 0.587672 0.321839 0.316745 0.359182 0.353178 0.316745 0.306211 0.353178 0.341117 0.359182 0.353178 0.395569 0.388692 0.353178 0.341117 0.388692 0.375008 0.306211 0.289801 0.341117 0.322296 0.289801 0.264277 0.322296 0.293728 0.341117 0.322296 0.375008 0.353825 0.322296 0.293728 0.353825 0.322132 0.395569 0.388692 0.430845 0.423113 0.388692 0.375008 0.423113 0.407707 0.430845 0.423113 0.46502 0.456368 0.423113 0.407707 0.456368 0.439281 0.375008 0.353825 0.407707 0.384183 0.353825 0.322132 0.384183 0.349391 0.407707 0.384183 0.439281 0.413318 0.384183 0.349391 0.413318 0.375505 0.264277 0.226368 0.293728 0.251638 0.226368 0.174384 0.251638 0.194792 0.293728 0.251638 0.322132 0.276187 0.251638 0.194792 0.276187 0.214732 0.174384 0.111421 0.194792 0.125951 0.111421 0.0440663 0.125951 0.0524992 0.194792 0.125951 0.214732 0.140811 0.125951 0.0524992 0.140811 0.0616928 0.322132 0.276187 0.349391 0.299841 0.276187 0.214732 0.299841 0.234227 0.349391 0.299841 0.375505 0.322425 0.299841 0.234227 0.322425 0.253036 0.214732 0.140811 0.234227 0.155808 0.140811 0.0616928 0.155808 0.0716992 0.234227 0.155808 0.253036 0.170571 0.155808 0.0716992 0.170571 0.0820677 0.46502 0.456368 0.497773 0.488212 0.456368 0.439281 0.488212 0.469427 0.497773 0.488212 0.529108 0.518627 0.488212 0.469427 0.518627 0.49819 0.439281 0.413318 0.469427 0.441069 0.413318 0.375505 0.441069 0.400299 0.469427 0.441069 0.49819 0.467446 0.441069 0.400299 0.467446 0.423829 0.529108 0.518627 0.559112 0.547799 0.518627 0.49819 0.547799 0.525734 0.559112 0.547799 0.587672 0.57556 0.547799 0.525734 0.57556 0.551974 0.49819 0.467446 0.525734 0.492705 0.467446 0.423829 0.492705 0.446248 0.525734 0.492705 0.551974 0.516749 0.492705 0.446248 0.516749 0.467659 0.375505 0.322425 0.400299 0.343945 0.322425 0.253036 0.343945 0.271171 0.400299 0.343945 0.423829 0.364363 0.343945 0.271171 0.364363 0.288576 0.253036 0.170571 0.271171 0.185252 0.170571 0.0820677 0.185252 0.0929375 0.271171 0.185252 0.288576 0.199655 0.185252 0.0929375 0.199655 0.104079 0.423829 0.364363 0.446248 0.383854 0.364363 0.288576 0.383854 0.305231 0.446248 0.383854 0.467659 0.402532 0.383854 0.305231 0.402532 0.321471 0.288576 0.199655 0.305231 0.21376 0.199655 0.104079 0.21376 0.115333 0.305231 0.21376 0.321471 0.227768 0.21376 0.115333 0.227768 0.12696 0 0 0.00411273 -0.00444 0 0 -0.00444 -0.0110808 0.00411273 -0.00444 0.00838077 -0.00855836 -0.00444 -0.0110808 -0.00855836 -0.0218733 0 0 -0.0110808 -0.0157449 0 0 -0.0157449 -0.0193297 -0.0110808 -0.0157449 -0.0218733 -0.0313528 -0.0157449 -0.0193297 -0.0313528 -0.038704 0.00838077 -0.00855836 0.0129393 -0.0125243 -0.00855836 -0.0218733 -0.0125243 -0.0324534 0.0129393 -0.0125243 0.0178723 -0.0156243 -0.0125243 -0.0324534 -0.0156243 -0.0423471 -0.0218733 -0.0313528 -0.0324534 -0.0469052 -0.0313528 -0.038704 -0.0469052 -0.058007 -0.0324534 -0.0469052 -0.0423471 -0.0619058 -0.0469052 -0.058007 -0.0619058 -0.0774537 0 0 -0.0193297 -0.0228296 0 0 -0.0228296 -0.0268448 -0.0193297 -0.0228296 -0.038704 -0.0459558 -0.0228296 -0.0268448 -0.0459558 -0.0538614 0 0 -0.0268448 -0.0305275 0 0 -0.0305275 -0.0328083 -0.0268448 -0.0305275 -0.0538614 -0.0612847 -0.0305275 -0.0328083 -0.0612847 -0.0654484 -0.038704 -0.0459558 -0.058007 -0.0690465 -0.0459558 -0.0538614 -0.0690465 -0.0809431 -0.058007 -0.0690465 -0.0774537 -0.0923727 -0.0690465 -0.0809431 -0.0923727 -0.108339 -0.0538614 -0.0612847 -0.0809431 -0.0920296 -0.0612847 -0.0654484 -0.0920296 -0.0982946 -0.0809431 -0.0920296 -0.108339 -0.122473 -0.0920296 -0.0982946 -0.122473 -0.130488 0.0178723 -0.0156243 0.0232195 -0.0182092 -0.0156243 -0.0423471 -0.0182092 -0.0516292 0.0232195 -0.0182092 0.0295381 -0.0196243 -0.0182092 -0.0516292 -0.0196243 -0.0595899 -0.0423471 -0.0619058 -0.0516292 -0.0764878 -0.0619058 -0.0774537 -0.0764878 -0.0963676 -0.0516292 -0.0764878 -0.0595899 -0.0903166 -0.0764878 -0.0963676 -0.0903166 -0.115029 0.0295381 -0.0196243 0.0364485 -0.019874 -0.0196243 -0.0595899 -0.019874 -0.0666537 0.0364485 -0.019874 0.0440663 -0.0191062 -0.019874 -0.0666537 -0.0191062 -0.0725334 -0.0595899 -0.0903166 -0.0666537 -0.103091 -0.0903166 -0.115029 -0.103091 -0.133273 -0.0666537 -0.103091 -0.0725334 -0.115264 -0.103091 -0.133273 -0.115264 -0.151078 -0.0774537 -0.0923727 -0.0963676 -0.115489 -0.0923727 -0.108339 -0.115489 -0.135242 -0.0963676 -0.115489 -0.115029 -0.138651 -0.115489 -0.135242 -0.138651 -0.162093 -0.108339 -0.122473 -0.135242 -0.152709 -0.122473 -0.130488 -0.152709 -0.161845 -0.135242 -0.152709 -0.162093 -0.18218 -0.152709 -0.161845 -0.18218 -0.19236 -0.115029 -0.138651 -0.133273 -0.161386 -0.138651 -0.162093 -0.161386 -0.188943 -0.133273 -0.161386 -0.151078 -0.184189 -0.161386 -0.188943 -0.184189 -0.215193 -0.162093 -0.18218 -0.188943 -0.211334 -0.18218 -0.19236 -0.211334 -0.222268 -0.188943 -0.211334 -0.215193 -0.239766 -0.211334 -0.222268 -0.239766 -0.250698 0 0 -0.0328083 -0.0322454 0 0 -0.0322454 -0.0291136 -0.0328083 -0.0322454 -0.0654484 -0.0645821 -0.0322454 -0.0291136 -0.0645821 -0.058101 0 0 -0.0291136 -0.0238673 0 0 -0.0238673 -0.0179987 -0.0291136 -0.0238673 -0.058101 -0.0481461 -0.0238673 -0.0179987 -0.0481461 -0.0362561 -0.0654484 -0.0645821 -0.0982946 -0.0967611 -0.0645821 -0.058101 -0.0967611 -0.0872301 -0.0982946 -0.0967611 -0.130488 -0.128101 -0.0967611 -0.0872301 -0.128101 -0.115627 -0.058101 -0.0481461 -0.0872301 -0.0721194 -0.0481461 -0.0362561 -0.0721194 -0.0547549 -0.0872301 -0.0721194 -0.115627 -0.0957818 -0.0721194 -0.0547549 -0.0957818 -0.0728924 0 0 -0.0179987 -0.0117723 0 0 -0.0117723 -0.0056633 -0.0179987 -0.0117723 -0.0362561 -0.0241857 -0.0117723 -0.0056633 -0.0241857 -0.01177 0 0 -0.0056633 7.94769e-05 0 0 7.94769e-05 0.00463544 -0.0056633 7.94769e-05 -0.01177 -0.00016638 7.94769e-05 0.00463544 -0.00016638 0.00893996 -0.0362561 -0.0241857 -0.0547549 -0.0365045 -0.0241857 -0.01177 -0.0365045 -0.018386 -0.0547549 -0.0365045 -0.0728924 -0.0490383 -0.0365045 -0.018386 -0.0490383 -0.0249768 -0.01177 -0.00016638 -0.018386 -0.000964841 -0.00016638 0.00893996 -0.000964841 0.0125828 -0.018386 -0.000964841 -0.0249768 -0.00228128 -0.000964841 0.0125828 -0.00228128 0.0160838 -0.130488 -0.128101 -0.161845 -0.158698 -0.128101 -0.115627 -0.158698 -0.142768 -0.161845 -0.158698 -0.19236 -0.188085 -0.158698 -0.142768 -0.188085 -0.169524 -0.115627 -0.0957818 -0.142768 -0.118727 -0.0957818 -0.0728924 -0.118727 -0.0905695 -0.142768 -0.118727 -0.169524 -0.140974 -0.118727 -0.0905695 -0.140974 -0.108169 -0.19236 -0.188085 -0.222268 -0.216449 -0.188085 -0.169524 -0.216449 -0.194985 -0.222268 -0.216449 -0.250698 -0.24375 -0.216449 -0.194985 -0.24375 -0.219409 -0.169524 -0.140974 -0.194985 -0.162643 -0.140974 -0.108169 -0.162643 -0.125398 -0.194985 -0.162643 -0.219409 -0.183629 -0.162643 -0.125398 -0.183629 -0.141984 -0.0728924 -0.0490383 -0.0905695 -0.0615668 -0.0490383 -0.0249768 -0.0615668 -0.031938 -0.0905695 -0.0615668 -0.108169 -0.0736908 -0.0615668 -0.031938 -0.0736908 -0.0392963 -0.0249768 -0.00228128 -0.031938 -0.00392711 -0.00228128 0.0160838 -0.00392711 0.0185643 -0.031938 -0.00392711 -0.0392963 -0.00619812 -0.00392711 0.0185643 -0.00619812 0.0204924 -0.108169 -0.0736908 -0.125398 -0.0863466 -0.0736908 -0.0392963 -0.0863466 -0.046568 -0.125398 -0.0863466 -0.141984 -0.0983974 -0.0863466 -0.046568 -0.0983974 -0.0541172 -0.0392963 -0.00619812 -0.046568 -0.00881177 -0.00619812 0.0204924 -0.00881177 0.0223096 -0.046568 -0.00881177 -0.0541172 -0.0119297 -0.00881177 0.0223096 -0.0119297 0.0228467 0.0440663 -0.0191062 0.0524992 -0.0172983 -0.0191062 -0.0725334 -0.0172983 -0.0771492 0.0524992 -0.0172983 0.0616928 -0.0140371 -0.0172983 -0.0771492 -0.0140371 -0.0804307 -0.0725334 -0.115264 -0.0771492 -0.126452 -0.115264 -0.151078 -0.126452 -0.168223 -0.0771492 -0.126452 -0.0804307 -0.136297 -0.126452 -0.168223 -0.136297 -0.184602 0.0616928 -0.0140371 0.0716992 -0.00963069 -0.0140371 -0.0804307 -0.00963069 -0.0823594 0.0716992 -0.00963069 0.0820677 -0.00440279 -0.00963069 -0.0823594 -0.00440279 -0.0832212 -0.0804307 -0.136297 -0.0823594 -0.14514 -0.136297 -0.184602 -0.14514 -0.200117 -0.0823594 -0.14514 -0.0832212 -0.152857 -0.14514 -0.200117 -0.152857 -0.214682 -0.151078 -0.184189 -0.168223 -0.206522 -0.184189 -0.215193 -0.206522 -0.241114 -0.168223 -0.206522 -0.184602 -0.228156 -0.206522 -0.241114 -0.228156 -0.266424 -0.215193 -0.239766 -0.241114 -0.26733 -0.239766 -0.250698 -0.26733 -0.278119 -0.241114 -0.26733 -0.266424 -0.294006 -0.26733 -0.278119 -0.294006 -0.30442 -0.184602 -0.228156 -0.200117 -0.249229 -0.228156 -0.266424 -0.249229 -0.290853 -0.200117 -0.249229 -0.214682 -0.269388 -0.249229 -0.290853 -0.269388 -0.314465 -0.266424 -0.294006 -0.290853 -0.319611 -0.294006 -0.30442 -0.319611 -0.329372 -0.290853 -0.319611 -0.314465 -0.344161 -0.319611 -0.329372 -0.344161 -0.353088 0.0820677 -0.00440279 0.0929375 0.00177878 -0.00440279 -0.0832212 0.00177878 -0.0829356 0.0929375 0.00177878 0.104079 0.00870196 0.00177878 -0.0829356 0.00870196 -0.0815654 -0.0832212 -0.152857 -0.0829356 -0.159527 -0.152857 -0.214682 -0.159527 -0.228275 -0.0829356 -0.159527 -0.0815654 -0.164862 -0.159527 -0.228275 -0.164862 -0.240469 0.104079 0.00870196 0.115333 0.0162721 0.00870196 -0.0815654 0.0162721 -0.0792427 0.115333 0.0162721 0.12696 0.0244444 0.0162721 -0.0792427 0.0244444 -0.0759517 -0.0815654 -0.164862 -0.0792427 -0.169008 -0.164862 -0.240469 -0.169008 -0.251376 -0.0792427 -0.169008 -0.0759517 -0.172008 -0.169008 -0.251376 -0.172008 -0.260737 -0.214682 -0.269388 -0.228275 -0.288614 -0.269388 -0.314465 -0.288614 -0.336772 -0.228275 -0.288614 -0.240469 -0.306313 -0.288614 -0.336772 -0.306313 -0.357697 -0.314465 -0.344161 -0.336772 -0.367179 -0.344161 -0.353088 -0.367179 -0.375138 -0.336772 -0.367179 -0.357697 -0.388744 -0.367179 -0.375138 -0.388744 -0.395925 -0.240469 -0.306313 -0.251376 -0.322624 -0.306313 -0.357697 -0.322624 -0.376962 -0.251376 -0.322624 -0.260737 -0.337138 -0.322624 -0.376962 -0.337138 -0.394236 -0.357697 -0.388744 -0.376962 -0.408586 -0.388744 -0.395925 -0.408586 -0.414901 -0.376962 -0.408586 -0.394236 -0.426464 -0.408586 -0.414901 -0.426464 -0.432206 -0.250698 -0.24375 -0.278119 -0.269378 -0.24375 -0.219409 -0.269378 -0.24265 -0.278119 -0.269378 -0.30442 -0.294027 -0.269378 -0.24265 -0.294027 -0.264968 -0.219409 -0.183629 -0.24265 -0.203565 -0.183629 -0.141984 -0.203565 -0.158421 -0.24265 -0.203565 -0.264968 -0.223188 -0.203565 -0.158421 -0.223188 -0.174595 -0.30442 -0.294027 -0.329372 -0.31753 -0.294027 -0.264968 -0.31753 -0.286618 -0.329372 -0.31753 -0.353088 -0.339551 -0.31753 -0.286618 -0.339551 -0.306841 -0.264968 -0.223188 -0.286618 -0.242425 -0.223188 -0.174595 -0.242425 -0.190687 -0.286618 -0.242425 -0.306841 -0.260766 -0.242425 -0.190687 -0.260766 -0.206379 -0.141984 -0.0983974 -0.158421 -0.110493 -0.0983974 -0.0541172 -0.110493 -0.0619084 -0.158421 -0.110493 -0.174595 -0.122813 -0.110493 -0.0619084 -0.122813 -0.0699602 -0.0541172 -0.0119297 -0.0619084 -0.0156171 -0.0119297 0.0228467 -0.0156171 0.0226991 -0.0619084 -0.0156171 -0.0699602 -0.0199015 -0.0156171 0.0226991 -0.0199015 0.0215247 -0.174595 -0.122813 -0.190687 -0.134946 -0.122813 -0.0699602 -0.134946 -0.0782785 -0.190687 -0.134946 -0.206379 -0.147232 -0.134946 -0.0782785 -0.147232 -0.0865653 -0.0699602 -0.0199015 -0.0782785 -0.0248182 -0.0199015 0.0215247 -0.0248182 0.0193719 -0.0782785 -0.0248182 -0.0865653 -0.0299885 -0.0248182 0.0193719 -0.0299885 0.0164077 -0.353088 -0.339551 -0.375138 -0.360349 -0.339551 -0.306841 -0.360349 -0.326317 -0.375138 -0.360349 -0.395925 -0.379767 -0.360349 -0.326317 -0.379767 -0.344713 -0.306841 -0.260766 -0.326317 -0.278514 -0.260766 -0.206379 -0.278514 -0.221441 -0.326317 -0.278514 -0.344713 -0.295565 -0.278514 -0.221441 -0.295565 -0.23629 -0.395925 -0.379767 -0.414901 -0.397911 -0.379767 -0.344713 -0.397911 -0.362069 -0.414901 -0.397911 -0.432206 -0.414506 -0.397911 -0.362069 -0.414506 -0.378289 -0.344713 -0.295565 -0.362069 -0.311944 -0.295565 -0.23629 -0.311944 -0.250358 -0.362069 -0.311944 -0.378289 -0.32722 -0.311944 -0.250358 -0.32722 -0.263758 -0.206379 -0.147232 -0.221441 -0.158696 -0.147232 -0.0865653 -0.158696 -0.0947506 -0.221441 -0.158696 -0.23629 -0.170191 -0.158696 -0.0947506 -0.170191 -0.10251 -0.0865653 -0.0299885 -0.0947506 -0.0354465 -0.0299885 0.0164077 -0.0354465 0.0126046 -0.0947506 -0.0354465 -0.10251 -0.0407553 -0.0354465 0.0126046 -0.0407553 0.00863777 -0.23629 -0.170191 -0.250358 -0.181105 -0.170191 -0.10251 -0.181105 -0.110255 -0.250358 -0.181105 -0.263758 -0.191344 -0.181105 -0.110255 -0.191344 -0.117578 -0.10251 -0.0407553 -0.110255 -0.0462651 -0.0407553 0.00863777 -0.0462651 0.0040141 -0.110255 -0.0462651 -0.117578 -0.0518323 -0.0462651 0.0040141 -0.0518323 -0.00114893 0 0.131516 0 0.138501 0.131516 0.255783 0.138501 0.26913 0 0.138501 0 0.145306 0.138501 0.26913 0.145306 0.282078 0.255783 0.36598 0.26913 0.384567 0.36598 0.456359 0.384567 0.478851 0.26913 0.384567 0.282078 0.402509 0.384567 0.478851 0.402509 0.500395 0 0.145306 0 0.151902 0.145306 0.282078 0.151902 0.294584 0 0.151902 0 0.158301 0.151902 0.294584 0.158301 0.306664 0.282078 0.402509 0.294584 0.419734 0.402509 0.500395 0.419734 0.520941 0.294584 0.419734 0.306664 0.436261 0.419734 0.520941 0.436261 0.540488 0.456359 0.523226 0.478851 0.548279 0.523226 0.565679 0.548279 0.592203