<?xml version="1.0" ?> 
<!-- 
# vtk DataFile Version 3.0
#This file was generated by the deal.II library on 21:45:56 at 2021/4/29
-->
<VTKFile type="UnstructuredGrid" version="0.1" byte_order="LittleEndian">
<UnstructuredGrid>
<Piece NumberOfPoints="65536" NumberOfCells="16384" >
  <Points>
    <DataArray type="Float32" NumberOfComponents="3" format="ascii">
-1 -1 0
-0.984375 -1 0
-1 -0.984375 0
-0.984375 -0.984375 0
-0.984375 -1 0
-0.96875 -1 0
-0.984375 -0.984375 0
-0.96875 -0.984375 0
-1 -0.984375 0
-0.984375 -0.984375 0
-1 -0.96875 0
-0.984375 -0.96875 0
-0.984375 -0.984375 0
-0.96875 -0.984375 0
-0.984375 -0.96875 0
-0.96875 -0.96875 0
-0.96875 -1 0
-0.953125 -1 0
-0.96875 -0.984375 0
-0.953125 -0.984375 0
-0.953125 -1 0
-0.9375 -1 0
-0.953125 -0.984375 0
-0.9375 -0.984375 0
-0.96875 -0.984375 0
-0.953125 -0.984375 0
-0.96875 -0.96875 0
-0.953125 -0.96875 0
-0.953125 -0.984375 0
-0.9375 -0.984375 0
-0.953125 -0.96875 0
-0.9375 -0.96875 0
-1 -0.96875 0
-0.984375 -0.96875 0
-1 -0.953125 0
-0.984375 -0.953125 0
-0.984375 -0.96875 0
-0.96875 -0.96875 0
-0.984375 -0.953125 0
-0.96875 -0.953125 0
-1 -0.953125 0
-0.984375 -0.953125 0
-1 -0.9375 0
-0.984375 -0.9375 0
-0.984375 -0.953125 0
-0.96875 -0.953125 0
-0.984375 -0.9375 0
-0.96875 -0.9375 0
-0.96875 -0.96875 0
-0.953125 -0.96875 0
-0.96875 -0.953125 0
-0.953125 -0.953125 0
-0.953125 -0.96875 0
-0.9375 -0.96875 0
-0.953125 -0.953125 0
-0.9375 -0.953125 0
-0.96875 -0.953125 0
-0.953125 -0.953125 0
-0.96875 -0.9375 0
-0.953125 -0.9375 0
-0.953125 -0.953125 0
-0.9375 -0.953125 0
-0.953125 -0.9375 0
-0.9375 -0.9375 0
-0.9375 -1 0
-0.921875 -1 0
-0.9375 -0.984375 0
-0.921875 -0.984375 0
-0.921875 -1 0
-0.90625 -1 0
-0.921875 -0.984375 0
-0.90625 -0.984375 0
-0.9375 -0.984375 0
-0.921875 -0.984375 0
-0.9375 -0.96875 0
-0.921875 -0.96875 0
-0.921875 -0.984375 0
-0.90625 -0.984375 0
-0.921875 -0.96875 0
-0.90625 -0.96875 0
-0.90625 -1 0
-0.890625 -1 0
-0.90625 -0.984375 0
-0.890625 -0.984375 0
-0.890625 -1 0
-0.875 -1 0
-0.890625 -0.984375 0
-0.875 -0.984375 0
-0.90625 -0.984375 0
-0.890625 -0.984375 0
-0.90625 -0.96875 0
-0.890625 -0.96875 0
-0.890625 -0.984375 0
-0.875 -0.984375 0
-0.890625 -0.96875 0
-0.875 -0.96875 0
-0.9375 -0.96875 0
-0.921875 -0.96875 0
-0.9375 -0.953125 0
-0.921875 -0.953125 0
-0.921875 -0.96875 0
-0.90625 -0.96875 0
-0.921875 -0.953125 0
-0.90625 -0.953125 0
-0.9375 -0.953125 0
-0.921875 -0.953125 0
-0.9375 -0.9375 0
-0.921875 -0.9375 0
-0.921875 -0.953125 0
-0.90625 -0.953125 0
-0.921875 -0.9375 0
-0.90625 -0.9375 0
-0.90625 -0.96875 0
-0.890625 -0.96875 0
-0.90625 -0.953125 0
-0.890625 -0.953125 0
-0.890625 -0.96875 0
-0.875 -0.96875 0
-0.890625 -0.953125 0
-0.875 -0.953125 0
-0.90625 -0.953125 0
-0.890625 -0.953125 0
-0.90625 -0.9375 0
-0.890625 -0.9375 0
-0.890625 -0.953125 0
-0.875 -0.953125 0
-0.890625 -0.9375 0
-0.875 -0.9375 0
-1 -0.9375 0
-0.984375 -0.9375 0
-1 -0.921875 0
-0.984375 -0.921875 0
-0.984375 -0.9375 0
-0.96875 -0.9375 0
-0.984375 -0.921875 0
-0.96875 -0.921875 0
-1 -0.921875 0
-0.984375 -0.921875 0
-1 -0.90625 0
-0.984375 -0.90625 0
-0.984375 -0.921875 0
-0.96875 -0.921875 0
-0.984375 -0.90625 0
-0.96875 -0.90625 0
-0.96875 -0.9375 0
-0.953125 -0.9375 0
-0.96875 -0.921875 0
-0.953125 -0.921875 0
-0.953125 -0.9375 0
-0.9375 -0.9375 0
-0.953125 -0.921875 0
-0.9375 -0.921875 0
-0.96875 -0.921875 0
-0.953125 -0.921875 0
-0.96875 -0.90625 0
-0.953125 -0.90625 0
-0.953125 -0.921875 0
-0.9375 -0.921875 0
-0.953125 -0.90625 0
-0.9375 -0.90625 0
-1 -0.90625 0
-0.984375 -0.90625 0
-1 -0.890625 0
-0.984375 -0.890625 0
-0.984375 -0.90625 0
-0.96875 -0.90625 0
-0.984375 -0.890625 0
-0.96875 -0.890625 0
-1 -0.890625 0
-0.984375 -0.890625 0
-1 -0.875 0
-0.984375 -0.875 0
-0.984375 -0.890625 0
-0.96875 -0.890625 0
-0.984375 -0.875 0
-0.96875 -0.875 0
-0.96875 -0.90625 0
-0.953125 -0.90625 0
-0.96875 -0.890625 0
-0.953125 -0.890625 0
-0.953125 -0.90625 0
-0.9375 -0.90625 0
-0.953125 -0.890625 0
-0.9375 -0.890625 0
-0.96875 -0.890625 0
-0.953125 -0.890625 0
-0.96875 -0.875 0
-0.953125 -0.875 0
-0.953125 -0.890625 0
-0.9375 -0.890625 0
-0.953125 -0.875 0
-0.9375 -0.875 0
-0.9375 -0.9375 0
-0.921875 -0.9375 0
-0.9375 -0.921875 0
-0.921875 -0.921875 0
-0.921875 -0.9375 0
-0.90625 -0.9375 0
-0.921875 -0.921875 0
-0.90625 -0.921875 0
-0.9375 -0.921875 0
-0.921875 -0.921875 0
-0.9375 -0.90625 0
-0.921875 -0.90625 0
-0.921875 -0.921875 0
-0.90625 -0.921875 0
-0.921875 -0.90625 0
-0.90625 -0.90625 0
-0.90625 -0.9375 0
-0.890625 -0.9375 0
-0.90625 -0.921875 0
-0.890625 -0.921875 0
-0.890625 -0.9375 0
-0.875 -0.9375 0
-0.890625 -0.921875 0
-0.875 -0.921875 0
-0.90625 -0.921875 0
-0.890625 -0.921875 0
-0.90625 -0.90625 0
-0.890625 -0.90625 0
-0.890625 -0.921875 0
-0.875 -0.921875 0
-0.890625 -0.90625 0
-0.875 -0.90625 0
-0.9375 -0.90625 0
-0.921875 -0.90625 0
-0.9375 -0.890625 0
-0.921875 -0.890625 0
-0.921875 -0.90625 0
-0.90625 -0.90625 0
-0.921875 -0.890625 0
-0.90625 -0.890625 0
-0.9375 -0.890625 0
-0.921875 -0.890625 0
-0.9375 -0.875 0
-0.921875 -0.875 0
-0.921875 -0.890625 0
-0.90625 -0.890625 0
-0.921875 -0.875 0
-0.90625 -0.875 0
-0.90625 -0.90625 0
-0.890625 -0.90625 0
-0.90625 -0.890625 0
-0.890625 -0.890625 0
-0.890625 -0.90625 0
-0.875 -0.90625 0
-0.890625 -0.890625 0
-0.875 -0.890625 0
-0.90625 -0.890625 0
-0.890625 -0.890625 0
-0.90625 -0.875 0
-0.890625 -0.875 0
-0.890625 -0.890625 0
-0.875 -0.890625 0
-0.890625 -0.875 0
-0.875 -0.875 0
-0.875 -1 0
-0.859375 -1 0
-0.875 -0.984375 0
-0.859375 -0.984375 0
-0.859375 -1 0
-0.84375 -1 0
-0.859375 -0.984375 0
-0.84375 -0.984375 0
-0.875 -0.984375 0
-0.859375 -0.984375 0
-0.875 -0.96875 0
-0.859375 -0.96875 0
-0.859375 -0.984375 0
-0.84375 -0.984375 0
-0.859375 -0.96875 0
-0.84375 -0.96875 0
-0.84375 -1 0
-0.828125 -1 0
-0.84375 -0.984375 0
-0.828125 -0.984375 0
-0.828125 -1 0
-0.8125 -1 0
-0.828125 -0.984375 0
-0.8125 -0.984375 0
-0.84375 -0.984375 0
-0.828125 -0.984375 0
-0.84375 -0.96875 0
-0.828125 -0.96875 0
-0.828125 -0.984375 0
-0.8125 -0.984375 0
-0.828125 -0.96875 0
-0.8125 -0.96875 0
-0.875 -0.96875 0
-0.859375 -0.96875 0
-0.875 -0.953125 0
-0.859375 -0.953125 0
-0.859375 -0.96875 0
-0.84375 -0.96875 0
-0.859375 -0.953125 0
-0.84375 -0.953125 0
-0.875 -0.953125 0
-0.859375 -0.953125 0
-0.875 -0.9375 0
-0.859375 -0.9375 0
-0.859375 -0.953125 0
-0.84375 -0.953125 0
-0.859375 -0.9375 0
-0.84375 -0.9375 0
-0.84375 -0.96875 0
-0.828125 -0.96875 0
-0.84375 -0.953125 0
-0.828125 -0.953125 0
-0.828125 -0.96875 0
-0.8125 -0.96875 0
-0.828125 -0.953125 0
-0.8125 -0.953125 0
-0.84375 -0.953125 0
-0.828125 -0.953125 0
-0.84375 -0.9375 0
-0.828125 -0.9375 0
-0.828125 -0.953125 0
-0.8125 -0.953125 0
-0.828125 -0.9375 0
-0.8125 -0.9375 0
-0.8125 -1 0
-0.796875 -1 0
-0.8125 -0.984375 0
-0.796875 -0.984375 0
-0.796875 -1 0
-0.78125 -1 0
-0.796875 -0.984375 0
-0.78125 -0.984375 0
-0.8125 -0.984375 0
-0.796875 -0.984375 0
-0.8125 -0.96875 0
-0.796875 -0.96875 0
-0.796875 -0.984375 0
-0.78125 -0.984375 0
-0.796875 -0.96875 0
-0.78125 -0.96875 0
-0.78125 -1 0
-0.765625 -1 0
-0.78125 -0.984375 0
-0.765625 -0.984375 0
-0.765625 -1 0
-0.75 -1 0
-0.765625 -0.984375 0
-0.75 -0.984375 0
-0.78125 -0.984375 0
-0.765625 -0.984375 0
-0.78125 -0.96875 0
-0.765625 -0.96875 0
-0.765625 -0.984375 0
-0.75 -0.984375 0
-0.765625 -0.96875 0
-0.75 -0.96875 0
-0.8125 -0.96875 0
-0.796875 -0.96875 0
-0.8125 -0.953125 0
-0.796875 -0.953125 0
-0.796875 -0.96875 0
-0.78125 -0.96875 0
-0.796875 -0.953125 0
-0.78125 -0.953125 0
-0.8125 -0.953125 0
-0.796875 -0.953125 0
-0.8125 -0.9375 0
-0.796875 -0.9375 0
-0.796875 -0.953125 0
-0.78125 -0.953125 0
-0.796875 -0.9375 0
-0.78125 -0.9375 0
-0.78125 -0.96875 0
-0.765625 -0.96875 0
-0.78125 -0.953125 0
-0.765625 -0.953125 0
-0.765625 -0.96875 0
-0.75 -0.96875 0
-0.765625 -0.953125 0
-0.75 -0.953125 0
-0.78125 -0.953125 0
-0.765625 -0.953125 0
-0.78125 -0.9375 0
-0.765625 -0.9375 0
-0.765625 -0.953125 0
-0.75 -0.953125 0
-0.765625 -0.9375 0
-0.75 -0.9375 0
-0.875 -0.9375 0
-0.859375 -0.9375 0
-0.875 -0.921875 0
-0.859375 -0.921875 0
-0.859375 -0.9375 0
-0.84375 -0.9375 0
-0.859375 -0.921875 0
-0.84375 -0.921875 0
-0.875 -0.921875 0
-0.859375 -0.921875 0
-0.875 -0.90625 0
-0.859375 -0.90625 0
-0.859375 -0.921875 0
-0.84375 -0.921875 0
-0.859375 -0.90625 0
-0.84375 -0.90625 0
-0.84375 -0.9375 0
-0.828125 -0.9375 0
-0.84375 -0.921875 0
-0.828125 -0.921875 0
-0.828125 -0.9375 0
-0.8125 -0.9375 0
-0.828125 -0.921875 0
-0.8125 -0.921875 0
-0.84375 -0.921875 0
-0.828125 -0.921875 0
-0.84375 -0.90625 0
-0.828125 -0.90625 0
-0.828125 -0.921875 0
-0.8125 -0.921875 0
-0.828125 -0.90625 0
-0.8125 -0.90625 0
-0.875 -0.90625 0
-0.859375 -0.90625 0
-0.875 -0.890625 0
-0.859375 -0.890625 0
-0.859375 -0.90625 0
-0.84375 -0.90625 0
-0.859375 -0.890625 0
-0.84375 -0.890625 0
-0.875 -0.890625 0
-0.859375 -0.890625 0
-0.875 -0.875 0
-0.859375 -0.875 0
-0.859375 -0.890625 0
-0.84375 -0.890625 0
-0.859375 -0.875 0
-0.84375 -0.875 0
-0.84375 -0.90625 0
-0.828125 -0.90625 0
-0.84375 -0.890625 0
-0.828125 -0.890625 0
-0.828125 -0.90625 0
-0.8125 -0.90625 0
-0.828125 -0.890625 0
-0.8125 -0.890625 0
-0.84375 -0.890625 0
-0.828125 -0.890625 0
-0.84375 -0.875 0
-0.828125 -0.875 0
-0.828125 -0.890625 0
-0.8125 -0.890625 0
-0.828125 -0.875 0
-0.8125 -0.875 0
-0.8125 -0.9375 0
-0.796875 -0.9375 0
-0.8125 -0.921875 0
-0.796875 -0.921875 0
-0.796875 -0.9375 0
-0.78125 -0.9375 0
-0.796875 -0.921875 0
-0.78125 -0.921875 0
-0.8125 -0.921875 0
-0.796875 -0.921875 0
-0.8125 -0.90625 0
-0.796875 -0.90625 0
-0.796875 -0.921875 0
-0.78125 -0.921875 0
-0.796875 -0.90625 0
-0.78125 -0.90625 0
-0.78125 -0.9375 0
-0.765625 -0.9375 0
-0.78125 -0.921875 0
-0.765625 -0.921875 0
-0.765625 -0.9375 0
-0.75 -0.9375 0
-0.765625 -0.921875 0
-0.75 -0.921875 0
-0.78125 -0.921875 0
-0.765625 -0.921875 0
-0.78125 -0.90625 0
-0.765625 -0.90625 0
-0.765625 -0.921875 0
-0.75 -0.921875 0
-0.765625 -0.90625 0
-0.75 -0.90625 0
-0.8125 -0.90625 0
-0.796875 -0.90625 0
-0.8125 -0.890625 0
-0.796875 -0.890625 0
-0.796875 -0.90625 0
[...]
  <PointData Scalars="scalars">
    <DataArray type="Float32" Name="U" format="ascii">
0 0 0 4.58258e-05 0 0 4.58258e-05 8.94129e-05 0 4.58258e-05 0 9.19558e-05 4.58258e-05 8.94129e-05 9.19558e-05 0.000175933 0 0 8.94129e-05 0.000123419 0 0 0.000123419 0.000147136 8.94129e-05 0.000123419 0.000175933 0.000249074 0.000123419 0.000147136 0.000249074 0.000290223 0 9.19558e-05 0 0.000115405 9.19558e-05 0.000175933 0.000115405 0.000222424 0 0.000115405 0 0.000139292 0.000115405 0.000222424 0.000139292 0.000267647 0.000175933 0.000249074 0.000222424 0.000306249 0.000249074 0.000290223 0.000306249 0.000354448 0.000222424 0.000306249 0.000267647 0.000362168 0.000306249 0.000354448 0.000362168 0.00040776 0 0 0.000147136 0.000144141 0 0 0.000144141 0.000109887 0.000147136 0.000144141 0.000290223 0.000292868 0.000144141 0.000109887 0.000292868 0.000211526 0 0 0.000109887 1.26614e-05 0 0 1.26614e-05 -0.000164492 0.000109887 1.26614e-05 0.000211526 2.35471e-05 1.26614e-05 -0.000164492 2.35471e-05 -0.000355566 0.000290223 0.000292868 0.000354448 0.000332435 0.000292868 0.000211526 0.000332435 0.000209517 0.000354448 0.000332435 0.00040776 0.000352754 0.000332435 0.000209517 0.000352754 0.00015486 0.000211526 2.35471e-05 0.000209517 -9.07117e-05 2.35471e-05 -0.000355566 -9.07117e-05 -0.000638688 0.000209517 -9.07117e-05 0.00015486 -0.000289262 -9.07117e-05 -0.000638688 -0.000289262 -0.00108091 0 0.000139292 0 0.000135674 0.000139292 0.000267647 0.000135674 0.00025024 0 0.000135674 0 0.00012248 0.000135674 0.00025024 0.00012248 0.000228513 0.000267647 0.000362168 0.00025024 0.000338373 0.000362168 0.00040776 0.000338373 0.000344679 0.00025024 0.000338373 0.000228513 0.000282291 0.000338373 0.000344679 0.000282291 0.000263931 0 0.00012248 0 7.61302e-05 0.00012248 0.000228513 7.61302e-05 0.000133777 0 7.61302e-05 0 4.19121e-05 7.61302e-05 0.000133777 4.19121e-05 4.57981e-05 0.000228513 0.000282291 0.000133777 0.000130893 0.000282291 0.000263931 0.000130893 4.52568e-05 0.000133777 0.000130893 4.57981e-05 9.84342e-06 0.000130893 4.52568e-05 9.84342e-06 -0.00017162 0.00040776 0.000352754 0.000344679 0.000258822 0.000352754 0.00015486 0.000258822 -3.58354e-05 0.000344679 0.000258822 0.000263931 8.91717e-05 0.000258822 -3.58354e-05 8.91717e-05 -0.000293144 0.00015486 -0.000289262 -3.58354e-05 -0.000587476 -0.000289262 -0.00108091 -0.000587476 -0.00161369 -3.58354e-05 -0.000587476 -0.000293144 -0.00105952 -0.000587476 -0.00161369 -0.00105952 -0.002328 0.000263931 8.91717e-05 4.52568e-05 -0.000216061 8.91717e-05 -0.000293144 -0.000216061 -0.000721127 4.52568e-05 -0.000216061 -0.00017162 -0.000499275 -0.000216061 -0.000721127 -0.000499275 -0.00118919 -0.000293144 -0.00105952 -0.000721127 -0.00165263 -0.00105952 -0.002328 -0.00165263 -0.00318774 -0.000721127 -0.00165263 -0.00118919 -0.00229236 -0.00165263 -0.00318774 -0.00229236 -0.0041913 0 0 -0.000164492 -0.0004763 0 0 -0.0004763 -0.000960498 -0.000164492 -0.0004763 -0.000355566 -0.000978192 -0.0004763 -0.000960498 -0.000978192 -0.00197742 0 0 -0.000960498 -0.00169462 0 0 -0.00169462 -0.0027297 -0.000960498 -0.00169462 -0.00197742 -0.00343579 -0.00169462 -0.0027297 -0.00343579 -0.00551569 -0.000355566 -0.000978192 -0.000638688 -0.00158151 -0.000978192 -0.00197742 -0.00158151 -0.00304652 -0.000638688 -0.00158151 -0.00108091 -0.00239791 -0.00158151 -0.00304652 -0.00239791 -0.00442589 -0.00197742 -0.00343579 -0.00304652 -0.00525918 -0.00343579 -0.00551569 -0.00525918 -0.00836858 -0.00304652 -0.00525918 -0.00442589 -0.00740951 -0.00525918 -0.00836858 -0.00740951 -0.0115918 0 0 -0.0027297 -0.00413443 0 0 -0.00413443 -0.00592479 -0.0027297 -0.00413443 -0.00551569 -0.00828591 -0.00413443 -0.00592479 -0.00828591 -0.0118471 0 0 -0.00592479 -0.00807826 0 0 -0.00807826 -0.0104878 -0.00592479 -0.00807826 -0.0118471 -0.0161197 -0.00807826 -0.0104878 -0.0161197 -0.02094 -0.00551569 -0.00828591 -0.00836858 -0.012596 -0.00828591 -0.0118471 -0.012596 -0.0179509 -0.00836858 -0.012596 -0.0115918 -0.0171801 -0.012596 -0.0179509 -0.0171801 -0.0243118 -0.0118471 -0.0161197 -0.0179509 -0.024422 -0.0161197 -0.02094 -0.024422 -0.0315984 -0.0179509 -0.024422 -0.0243118 -0.0328619 -0.024422 -0.0315984 -0.0328619 -0.0424892 -0.00108091 -0.00239791 -0.00161369 -0.00324227 -0.00239791 -0.00442589 -0.00324227 -0.00582204 -0.00161369 -0.00324227 -0.002328 -0.00441709 -0.00324227 -0.00582204 -0.00441709 -0.00753169 -0.00442589 -0.00740951 -0.00582204 -0.0095663 -0.00740951 -0.0115918 -0.0095663 -0.0148945 -0.00582204 -0.0095663 -0.00753169 -0.0121404 -0.0095663 -0.0148945 -0.0121404 -0.0184679 -0.002328 -0.00441709 -0.00318774 -0.00564071 -0.00441709 -0.00753169 -0.00564071 -0.00935322 -0.00318774 -0.00564071 -0.0041913 -0.00704639 -0.00564071 -0.00935322 -0.00704639 -0.0114388 -0.00753169 -0.0121404 -0.00935322 -0.0147509 -0.0121404 -0.0184679 -0.0147509 -0.0222827 -0.00935322 -0.0147509 -0.0114388 -0.0176424 -0.0147509 -0.0222827 -0.0176424 -0.0263354 -0.0115918 -0.0171801 -0.0148945 -0.0219684 -0.0171801 -0.0243118 -0.0219684 -0.0310042 -0.0148945 -0.0219684 -0.0184679 -0.0269937 -0.0219684 -0.0310042 -0.0269937 -0.0376838 -0.0243118 -0.0328619 -0.0310042 -0.0417491 -0.0328619 -0.0424892 -0.0417491 -0.0537326 -0.0310042 -0.0417491 -0.0376838 -0.050604 -0.0417491 -0.0537326 -0.050604 -0.0648935 -0.0184679 -0.0269937 -0.0222827 -0.0322591 -0.0269937 -0.0376838 -0.0322591 -0.0449082 -0.0222827 -0.0322591 -0.0263354 -0.0377139 -0.0322591 -0.0449082 -0.0377139 -0.0521414 -0.0376838 -0.050604 -0.0449082 -0.0598753 -0.050604 -0.0648935 -0.0598753 -0.0765585 -0.0449082 -0.0598753 -0.0521414 -0.0691976 -0.0598753 -0.0765585 -0.0691976 -0.0881413 0 4.19121e-05 0 -4.85505e-06 4.19121e-05 4.57981e-05 -4.85505e-06 -3.4281e-05 0 -4.85505e-06 0 -4.89321e-05 -4.85505e-06 -3.4281e-05 -4.89321e-05 -0.000125334 4.57981e-05 9.84342e-06 -3.4281e-05 -0.00014731 9.84342e-06 -0.00017162 -0.00014731 -0.000367454 -3.4281e-05 -0.00014731 -0.000125334 -0.00029474 -0.00014731 -0.000367454 -0.00029474 -0.000587485 0 -4.89321e-05 0 -9.9777e-05 -4.89321e-05 -0.000125334 -9.9777e-05 -0.000253024 0 -9.9777e-05 0 -0.000174883 -9.9777e-05 -0.000253024 -0.000174883 -0.000388246 -0.000125334 -0.00029474 -0.000253024 -0.000467568 -0.00029474 -0.000587485 -0.000467568 -0.000886442 -0.000253024 -0.000467568 -0.000388246 -0.000710813 -0.000467568 -0.000886442 -0.000710813 -0.00119496 -0.00017162 -0.000499275 -0.000367454 -0.000832245 -0.000499275 -0.00118919 -0.000832245 -0.0016047 -0.000367454 -0.000832245 -0.000587485 -0.00114679 -0.000832245 -0.0016047 -0.00114679 -0.00206759 -0.00118919 -0.00229236 -0.0016047 -0.00296891 -0.00229236 -0.0041913 -0.00296891 -0.0050808 -0.0016047 -0.00296891 -0.00206759 -0.00362327 -0.00296891 -0.0050808 -0.00362327 -0.00606138 -0.000587485 -0.00114679 -0.000886442 -0.00152098 -0.00114679 -0.00206759 -0.00152098 -0.0026625 -0.000886442 -0.00152098 -0.00119496 -0.00200196 -0.00152098 -0.0026625 -0.00200196 -0.00325468 -0.00206759 -0.00362327 -0.0026625 -0.0043969 -0.00362327 -0.00606138 -0.0043969 -0.00723844 -0.0026625 -0.0043969 -0.00325468 -0.00529166 -0.0043969 -0.00723844 -0.00529166 -0.00837874 0 -0.000174883 0 -0.00023489 -0.000174883 -0.000388246 -0.00023489 -0.000510942 0 -0.00023489 0 -0.000291142 -0.00023489 -0.000510942 -0.000291142 -0.000641122 -0.000388246 -0.000710813 -0.000510942 -0.000908712 -0.000710813 -0.00119496 -0.000908712 -0.00148413 -0.000510942 -0.000908712 -0.000641122 -0.00109769 -0.000908712 -0.00148413 -0.00109769 -0.00178762 0 -0.000291142 0 -0.000348142 -0.000291142 -0.000641122 -0.000348142 -0.000753037 0 -0.000348142 0 -0.00041367 -0.000348142 -0.000753037 -0.00041367 -0.000890092 -0.000641122 -0.00109769 -0.000753037 -0.00128623 -0.00109769 -0.00178762 -0.00128623 -0.00205157 -0.000753037 -0.00128623 -0.000890092 -0.00150732 -0.00128623 -0.00205157 -0.00150732 -0.00237935 -0.00119496 -0.00200196 -0.00148413 -0.00241252 -0.00200196 -0.00325468 -0.00241252 -0.00384118 -0.00148413 -0.00241252 -0.00178762 -0.00281103 -0.00241252 -0.00384118 -0.00281103 -0.00443732 -0.00325468 -0.00529166 -0.00384118 -0.00611317 -0.00529166 -0.00837874 -0.00611317 -0.00956846 -0.00384118 -0.00611317 -0.00443732 -0.00690777 -0.00611317 -0.00956846 -0.00690777 -0.0107279 -0.00178762 -0.00281103 -0.00205157 -0.00320589 -0.00281103 -0.00443732 -0.00320589 -0.00497984 -0.00205157 -0.00320589 -0.00237935 -0.00367294 -0.00320589 -0.00497984 -0.00367294 -0.00563952 -0.00443732 -0.00690777 -0.00497984 -0.00771225 -0.00690777 -0.0107279 -0.00771225 -0.0118583 -0.00497984 -0.00771225 -0.00563952 -0.00863313 -0.00771225 -0.0118583 -0.00863313 -0.0131476 -0.0041913 -0.00704639 -0.0050808 -0.00844947 -0.00704639 -0.0114388 -0.00844947 -0.0133521 -0.0050808 -0.00844947 -0.00606138 -0.00983489 -0.00844947 -0.0133521 -0.00983489 -0.0154144 -0.0114388 -0.0176424 -0.0133521 -0.0205286 -0.0176424 -0.0263354 -0.0205286 -0.0302577 -0.0133521 -0.0205286 -0.0154144 -0.0233895 -0.0205286 -0.0302577 -0.0233895 -0.0343662 -0.00606138 -0.00983489 -0.00723844 -0.0114256 -0.00983489 -0.0154144 -0.0114256 -0.0177307 -0.00723844 -0.0114256 -0.00837874 -0.0131255 -0.0114256 -0.0177307 -0.0131255 -0.0199752 -0.0154144 -0.0233895 -0.0177307 -0.0265375 -0.0233895 -0.0343662 -0.0265375 -0.0387164 -0.0177307 -0.0265375 -0.0199752 -0.0297956 -0.0265375 -0.0387164 -0.0297956 -0.0430363 -0.0263354 -0.0377139 -0.0302577 -0.0432659 -0.0377139 -0.0521414 -0.0432659 -0.0593843 -0.0302577 -0.0432659 -0.0343662 -0.0487467 -0.0432659 -0.0593843 -0.0487467 -0.066813 -0.0521414 -0.0691976 -0.0593843 -0.0786709 -0.0691976 -0.0881413 -0.0786709 -0.0997148 -0.0593843 -0.0786709 -0.066813 -0.0880108 -0.0786709 -0.0997148 -0.0880108 -0.111436 -0.0343662 -0.0487467 -0.0387164 -0.0545117 -0.0487467 -0.066813 -0.0545117 -0.0743164 -0.0387164 -0.0545117 -0.0430363 -0.0604693 -0.0545117 -0.0743164 -0.0604693 -0.0819379 -0.066813 -0.0880108 -0.0743164 -0.0975038 -0.0880108 -0.111436 -0.0975038 -0.122964 -0.0743164 -0.0975038 -0.0819379 -0.107238 -0.0975038 -0.122964 -0.107238 -0.134586 -0.00837874 -0.0131255 -0.00956846 -0.0147829 -0.0131255 -0.0199752 -0.0147829 -0.0223506 -0.00956846 -0.0147829 -0.0107279 -0.0163705 -0.0147829 -0.0223506 -0.0163705 -0.0246181 -0.0199752 -0.0297956 -0.0223506 -0.0330192 -0.0297956 -0.0430363 -0.0330192 -0.0474801 -0.0223506 -0.0330192 -0.0246181 -0.036139 -0.0330192 -0.0474801 -0.036139 -0.0517783 -0.0107279 -0.0163705 -0.0118583 -0.0180279 -0.0163705 -0.0246181 -0.0180279 -0.0269376 -0.0118583 -0.0180279 -0.0131476 -0.0198152 -0.0180279 -0.0269376 -0.0198152 -0.0294115 -0.0246181 -0.036139 -0.0269376 -0.0394065 -0.036139 -0.0517783 -0.0394065 -0.0561827 -0.0269376 -0.0394065 -0.0294115 -0.0427799 -0.0394065 -0.0561827 -0.0427799 -0.0607232 -0.0430363 -0.0604693 -0.0474801 -0.0662417 -0.0604693 -0.0819379 -0.0662417 -0.0894751 -0.0474801 -0.0662417 -0.0517783 -0.0719807 -0.0662417 -0.0894751 -0.0719807 -0.0969145 -0.0819379 -0.107238 -0.0894751 -0.116516 -0.107238 -0.134586 -0.116516 -0.145924 -0.0894751 -0.116516 -0.0969145 -0.12582 -0.116516 -0.145924 -0.12582 -0.156992 -0.0517783 -0.0719807 -0.0561827 -0.0778229 -0.0719807 -0.0969145 -0.0778229 -0.104358 -0.0561827 -0.0778229 -0.0607232 -0.0837871 -0.0778229 -0.104358 -0.0837871 -0.111965 -0.0969145 -0.12582 -0.104358 -0.135033 -0.12582 -0.156992 -0.135033 -0.167947 -0.104358 -0.135033 -0.111965 -0.144384 -0.135033 -0.167947 -0.144384 -0.178921 0 0 -0.0104878 -0.0129364 0 0 -0.0129364 -0.0151273 -0.0104878 -0.0129364 -0.02094 -0.0258627 -0.0129364 -0.0151273 -0.0258627 -0.0302502 0 0 -0.0151273 -0.0166119 0 0 -0.0166119 -0.0169669 -0.0151273 -0.0166119 -0.0302502 -0.0332439 -0.0166119 -0.0169669 -0.0332439 -0.0338919 -0.02094 -0.0258627 -0.0315984 -0.0389518 -0.0258627 -0.0302502 -0.0389518 -0.0454388 -0.0315984 -0.0389518 -0.0424892 -0.052272 -0.0389518 -0.0454388 -0.052272 -0.0610189 -0.0302502 -0.0332439 -0.0454388 -0.04993 -0.0332439 -0.0338919 -0.04993 -0.0509359 -0.0454388 -0.04993 -0.0610189 -0.0668773 -0.04993 -0.0509359 -0.0668773 -0.068167 0 0 -0.0169669 -0.0156857 0 0 -0.0156857 -0.0125667 -0.0169669 -0.0156857 -0.0338919 -0.0314051 -0.0156857 -0.0125667 -0.0314051 -0.0251859 0 0 -0.0125667 -0.00751359 0 0 -0.00751359 -0.000989487 -0.0125667 -0.00751359 -0.0251859 -0.0153036 -0.00751359 -0.000989487 -0.0153036 -0.00220268 -0.0338919 -0.0314051 -0.0509359 -0.0472384 -0.0314051 -0.0251859 -0.0472384 -0.0379239 -0.0509359 -0.0472384 -0.068167 -0.0630382 -0.0472384 -0.0379239 -0.0630382 -0.0507106 -0.0251859 -0.0153036 -0.0379239 -0.0230098 -0.0153036 -0.00220268 -0.0230098 -0.00352003 -0.0379239 -0.0230098 -0.0507106 -0.0309352 -0.0230098 -0.00352003 -0.0309352 -0.00515738 -0.0424892 -0.052272 -0.0537326 -0.0658514 -0.052272 -0.0610189 -0.0658514 -0.0765643 -0.0537326 -0.0658514 -0.0648935 -0.0795465 -0.0658514 -0.0765643 -0.0795465 -0.0923613 -0.0610189 -0.0668773 -0.0765643 -0.0838574 -0.0668773 -0.068167 -0.0838574 -0.0853933 -0.0765643 -0.0838574 -0.0923613 -0.101073 -0.0838574 -0.0853933 -0.101073 -0.102716 -0.0648935 -0.0795465 -0.0765585 -0.0932579 -0.0795465 -0.0923613 -0.0932579 -0.108069 -0.0765585 -0.0932579 -0.0881413 -0.107197 -0.0932579 -0.108069 -0.107197 -0.123835 -0.0923613 -0.101073 -0.108069 -0.117818 -0.101073 -0.102716 -0.117818 -0.119803 -0.108069 -0.117818 -0.123835 -0.134869 -0.117818 -0.119803 -0.134869 -0.136613 -0.068167 -0.0630382 -0.0853933 -0.0791975 -0.0630382 -0.0507106 -0.0791975 -0.0637044 -0.0853933 -0.0791975 -0.102716 -0.0950622 -0.0791975 -0.0637044 -0.0950622 -0.0765344 -0.0507106 -0.0309352 -0.0637044 -0.0391599 -0.0309352 -0.00515738 -0.0391599 -0.00685453 -0.0637044 -0.0391599 -0.0765344 -0.0472049 -0.0391599 -0.00685453 -0.0472049 -0.00901767 -0.102716 -0.0950622 -0.119803 -0.110749 -0.0950622 -0.0765344 -0.110749 -0.0893518 -0.119803 -0.110749 -0.136613 -0.126253 -0.110749 -0.0893518 -0.126253 -0.101529 -0.0765344 -0.0472049 -0.0893518 -0.0551838 -0.0472049 -0.00901767 -0.0551838 -0.0108988 -0.0893518 -0.0551838 -0.101529 -0.0630831 -0.0551838 -0.0108988 -0.0630831 -0.0127972 0 0 -0.000989487 0.00648911 0 0 0.00648911 0.0140329 -0.000989487 0.00648911 -0.00220268 0.0127141 0.00648911 0.0140329 0.0127141 0.0279746 0 0 0.0140329 0.0210197 0 0 0.0210197 0.026839 0.0140329 0.0210197 0.0279746 0.0417477 0.0210197 0.026839 0.0417477 0.0532422 -0.00220268 0.0127141 -0.00352003 0.0187118 0.0127141 0.0279746 0.0187118 0.0412252 -0.00352003 0.0187118 -0.00515738 0.0244066 0.0187118 0.0412252 0.0244066 0.054406 0.0279746 0.0417477 0.0412252 0.0620078 0.0417477 0.0532422 0.0620078 0.0792386 0.0412252 0.0620078 0.054406 0.0818015 0.0620078 0.0792386 0.0818015 0.104647 0 0 0.026839 0.0313299 0 0 0.0313299 0.0347544 0.026839 0.0313299 0.0532422 0.0621747 0.0313299 0.0347544 0.0621747 0.0691327 0 0 0.0347544 0.0374174 0 0 0.0374174 0.0397091 0.0347544 0.0374174 0.0691327 0.074701 0.0374174 0.0397091 0.074701 0.0789415 0.0532422 0.0621747 0.0792386 0.0927362 0.0621747 0.0691327 0.0927362 0.102842 0.0792386 0.0927362 0.104647 0.122372 0.0927362 0.102842 0.122372 0.136167 0.0691327 0.074701 0.102842 0.111037 0.074701 0.0789415 0.111037 0.117492 0.102842 0.111037 0.136167 0.146747 0.111037 0.117492 0.146747 0.155173 -0.00515738 0.0244066 -0.00685453 0.0296868 0.0244066 0.054406 0.0296868 0.0670101 -0.00685453 0.0296868 -0.00901767 0.0346907 0.0296868 0.0670101 0.0346907 0.0789498 0.054406 0.0818015 0.0670101 0.101007 0.0818015 0.104647 0.101007 0.129565 0.0670101 0.101007 0.0789498 0.119809 0.101007 0.129565 0.119809 0.153664 -0.00901767 0.0346907 -0.0108988 0.03958 0.0346907 0.0789498 0.03958 0.0907801 -0.0108988 0.03958 -0.0127972 0.04399 0.03958 0.0907801 0.04399 0.102051 0.0789498 0.119809 0.0907801 0.137686 0.119809 0.153664 0.137686 0.177204 0.0907801 0.137686 0.102051 0.155103 0.137686 0.177204 0.155103 0.19975 0.104647 0.122372 0.129565 0.151715 0.122372 0.136167 0.151715 0.168595 0.129565 0.151715 0.153664 0.180423 0.151715 0.168595 0.180423 0.20055 0.136167 0.146747 0.168595 0.181985 0.146747 0.155173 0.181985 0.19203 0.168595 0.181985 0.20055 0.216327 0.181985 0.19203 0.216327 0.228063 0.153664 0.180423 0.177204 0.207901 0.180423 0.20055 0.207901 0.231621 0.177204 0.207901 0.19975 0.234595 0.207901 0.231621 0.234595 0.260878 0.20055 0.216327 0.231621 0.249326 0.216327 0.228063 0.249326 0.262548 0.231621 0.249326 0.260878 0.281072 0.249326 0.262548 0.281072 0.295086 -0.0881413 -0.107197 -0.0997148 -0.121034 -0.107197 -0.123835 -0.121034 -0.139387 -0.0997148 -0.121034 -0.111436 -0.134635 -0.121034 -0.139387 -0.134635 -0.154881 -0.123835 -0.134869 -0.139387 -0.151564 -0.134869 -0.136613 -0.151564 -0.153334 -0.139387 -0.151564 -0.154881 -0.16777 -0.151564 -0.153334 -0.16777 -0.169619 -0.111436 -0.134635 -0.122964 -0.148264 -0.134635 -0.154881 -0.148264 -0.169982 -0.122964 -0.148264 -0.134586 -0.161752 -0.148264 -0.169982 -0.161752 -0.18471 -0.154881 -0.16777 -0.169982 -0.183879 -0.16777 -0.169619 -0.183879 -0.185198 -0.169982 -0.183879 -0.18471 -0.199186 -0.183879 -0.185198 -0.199186 -0.200119 -0.136613 -0.126253 -0.153334 -0.141511 -0.126253 -0.101529 -0.141511 -0.113924 -0.153334 -0.141511 -0.169619 -0.156177 -0.141511 -0.113924 -0.156177 -0.125828 -0.101529 -0.0630831 -0.113924 -0.0707524 -0.0630831 -0.0127972 -0.0707524 -0.0150446 -0.113924 -0.0707524 -0.125828 -0.0783063 -0.0707524 -0.0150446 -0.0783063 -0.0171812 -0.169619 -0.156177 -0.185198 -0.170317 -0.156177 -0.125828 -0.170317 -0.136656 -0.185198 -0.170317 -0.200119 -0.18351 -0.170317 -0.136656 -0.18351 -0.146959 -0.125828 -0.0783063 -0.136656 -0.0851291 -0.0783063 -0.0171812 -0.0851291 -0.0186213 -0.136656 -0.0851291 -0.146959 -0.0909167 -0.0851291 -0.0186213 -0.0909167 -0.0193938 -0.134586 -0.161752 -0.145924 -0.174741 -0.161752 -0.18471 -0.174741 -0.199145 -0.145924 -0.174741 -0.156992 -0.187387 -0.174741 -0.199145 -0.187387 -0.212741 -0.18471 -0.199186 -0.199145 -0.213961 -0.199186 -0.200119 -0.213961 -0.214297 -0.199145 -0.213961 -0.212741 -0.22793 -0.213961 -0.214297 -0.22793 -0.227558 -0.156992 -0.187387 -0.167947 -0.199848 -0.187387 -0.212741 -0.199848 -0.226195 -0.167947 -0.199848 -0.178921 -0.21213 -0.199848 -0.226195 -0.21213 -0.239129 -0.212741 -0.22793 -0.226195 -0.241455 -0.22793 -0.227558 -0.241455 -0.240112 -0.226195 -0.241455 -0.239129 -0.254315 -0.241455 -0.240112 -0.254315 -0.251854 -0.200119 -0.18351 -0.214297 -0.195666 -0.18351 -0.146959 -0.195666 -0.156065 -0.214297 -0.195666 -0.227558 -0.207245 -0.195666 -0.156065 -0.207245 -0.16459 -0.146959 -0.0909167 -0.156065 -0.0960902 -0.0909167 -0.0193938 -0.0960902 -0.0198367 -0.156065 -0.0960902 -0.16459 -0.10053 -0.0960902 -0.0198367 -0.10053 -0.0195205 -0.227558 -0.207245 -0.240112 -0.217615 -0.207245 -0.16459 -0.217615 -0.171906 -0.240112 -0.217615 -0.251854 -0.227336 -0.217615 -0.171906 -0.227336 -0.178527 -0.16459 -0.10053 -0.171906 -0.104085 -0.10053 -0.0195205 -0.104085 -0.0188912 -0.171906 -0.104085 -0.178527 -0.106954 -0.104085 -0.0188912 -0.106954 -0.0175682 -0.0127972 0.04399 -0.0150446 0.0483543 0.04399 0.102051 0.0483543 0.112367 -0.0150446 0.0483543 -0.0171812 0.0521149 0.0483543 0.112367 0.0521149 0.122449 0.102051 0.155103 0.112367 0.171542 0.155103 0.19975 0.171542 0.220963 0.112367 0.171542 0.122449 0.187061 0.171542 0.220963 0.187061 0.241774 -0.0171812 0.0521149 -0.0186213 0.0562616 0.0521149 0.122449 0.0562616 0.132484 -0.0186213 0.0562616 -0.0193938 0.0612109 0.0562616 0.132484 0.0612109 0.14257 0.122449 0.187061 0.132484 0.202515 0.187061 0.241774 0.202515 0.261684 0.132484 0.202515 0.14257 0.217717 0.202515 0.261684 0.217717 0.281351 0.19975 0.234595 0.220963 0.260145 0.234595 0.260878 0.260145 0.289544 0.220963 0.260145 0.241774 0.284476 0.260145 0.289544 0.284476 0.316966 0.260878 0.281072 0.289544 0.311408 0.281072 0.295086 0.311408 0.326289 0.289544 0.311408 0.316966 0.340596 0.311408 0.326289 0.340596 0.356416 0.241774 0.284476 0.261684 0.308405 0.284476 0.316966 0.308405 0.343488 0.261684 0.308405 0.281351 0.331763 0.308405 0.343488 0.331763 0.369608 0.316966 0.340596 0.343488 0.36907 0.34059