# vtk DataFile Version 3.0
#This file was generated by the deal.II library on 2021/4/23 at 0:45:43
ASCII
DATASET UNSTRUCTURED_GRID

FIELD FieldData 2
CYCLE 1 1 int
110
TIME 1 1 double
0.22
POINTS 3120 double
-1 -1 0
-0.75 -1 0
-1 -0.75 0
-0.75 -0.75 0
-0.75 -1 0
-0.5 -1 0
-0.75 -0.75 0
-0.5 -0.75 0
-1 -0.75 0
-0.75 -0.75 0
-1 -0.5 0
-0.75 -0.5 0
-0.75 -0.75 0
-0.5 -0.75 0
-0.75 -0.5 0
-0.5 -0.5 0
-0.5 -1 0
-0.25 -1 0
-0.5 -0.75 0
-0.25 -0.75 0
-0.25 -1 0
0 -1 0
-0.25 -0.75 0
0 -0.75 0
-0.5 -0.75 0
-0.25 -0.75 0
-0.5 -0.5 0
-0.25 -0.5 0
-1 -0.5 0
-0.75 -0.5 0
-1 -0.25 0
-0.75 -0.25 0
-0.5 -0.5 0
-0.25 -0.5 0
-0.5 -0.25 0
-0.25 -0.25 0
-0.75 -0.25 0
-0.625 -0.25 0
-0.75 -0.125 0
-0.625 -0.125 0
-0.5 -0.25 0
-0.375 -0.25 0
-0.5 -0.125 0
-0.375 -0.125 0
-0.375 -0.25 0
-0.25 -0.25 0
-0.375 -0.125 0
-0.25 -0.125 0
0 -0.75 0
0.125 -0.75 0
0 -0.625 0
0.125 -0.625 0
0.125 -0.75 0
0.25 -0.75 0
0.125 -0.625 0
0.25 -0.625 0
0 -0.625 0
0.125 -0.625 0
0 -0.5 0
0.125 -0.5 0
0.125 -0.625 0
0.25 -0.625 0
0.125 -0.5 0
0.25 -0.5 0
0 -0.5 0
0.125 -0.5 0
0 -0.375 0
0.125 -0.375 0
0 -0.375 0
0.125 -0.375 0
0 -0.25 0
0.125 -0.25 0
-1 0 0
-0.875 0 0
-1 0.125 0
-0.875 0.125 0
-0.875 0 0
-0.75 0 0
-0.875 0.125 0
-0.75 0.125 0
-1 0.125 0
-0.875 0.125 0
-1 0.25 0
-0.875 0.25 0
-0.875 0.125 0
-0.75 0.125 0
-0.875 0.25 0
-0.75 0.25 0
-0.75 -0.5 0
-0.625 -0.5 0
-0.75 -0.375 0
-0.625 -0.375 0
-0.625 -0.5 0
-0.5 -0.5 0
-0.625 -0.375 0
-0.5 -0.375 0
-0.75 -0.375 0
-0.625 -0.375 0
-0.75 -0.25 0
-0.625 -0.25 0
-0.625 -0.375 0
-0.5 -0.375 0
-0.625 -0.25 0
-0.5 -0.25 0
0.75 -1 0
0.875 -1 0
0.75 -0.875 0
0.875 -0.875 0
0.875 -1 0
1 -1 0
0.875 -0.875 0
1 -0.875 0
0.75 -0.875 0
0.875 -0.875 0
0.75 -0.75 0
0.875 -0.75 0
0.875 -0.875 0
1 -0.875 0
0.875 -0.75 0
1 -0.75 0
-0.25 -0.75 0
-0.125 -0.75 0
-0.25 -0.625 0
-0.125 -0.625 0
-0.125 -0.75 0
0 -0.75 0
-0.125 -0.625 0
0 -0.625 0
-0.25 -0.625 0
-0.125 -0.625 0
-0.25 -0.5 0
-0.125 -0.5 0
-0.125 -0.625 0
0 -0.625 0
-0.125 -0.5 0
0 -0.5 0
-1 -0.25 0
-0.875 -0.25 0
-1 -0.125 0
-0.875 -0.125 0
-0.875 -0.25 0
-0.75 -0.25 0
-0.875 -0.125 0
-0.75 -0.125 0
-1 -0.125 0
-0.875 -0.125 0
-1 0 0
-0.875 0 0
-0.875 -0.125 0
-0.75 -0.125 0
-0.875 0 0
-0.75 0 0
-0.25 -0.5 0
-0.125 -0.5 0
-0.25 -0.375 0
-0.125 -0.375 0
-0.125 -0.5 0
0 -0.5 0
-0.125 -0.375 0
0 -0.375 0
-0.25 -0.375 0
-0.125 -0.375 0
-0.25 -0.25 0
-0.125 -0.25 0
-0.125 -0.375 0
0 -0.375 0
-0.125 -0.25 0
0 -0.25 0
0 -1 0
0.125 -1 0
0 -0.875 0
0.125 -0.875 0
0.125 -1 0
0.25 -1 0
0.125 -0.875 0
0.25 -0.875 0
0 -0.875 0
0.125 -0.875 0
0 -0.75 0
0.125 -0.75 0
0.125 -0.875 0
0.25 -0.875 0
0.125 -0.75 0
0.25 -0.75 0
0.25 -1 0
0.375 -1 0
0.25 -0.875 0
0.375 -0.875 0
0.375 -1 0
0.5 -1 0
0.375 -0.875 0
0.5 -0.875 0
0.25 -0.875 0
0.375 -0.875 0
0.25 -0.75 0
0.375 -0.75 0
0.375 -0.875 0
0.5 -0.875 0
0.375 -0.75 0
0.5 -0.75 0
0.25 -0.75 0
0.375 -0.75 0
0.25 -0.625 0
0.375 -0.625 0
0.375 -0.75 0
0.5 -0.75 0
0.375 -0.625 0
0.5 -0.625 0
0.25 -0.625 0
0.375 -0.625 0
0.25 -0.5 0
0.375 -0.5 0
0.375 -0.625 0
0.5 -0.625 0
0.375 -0.5 0
0.5 -0.5 0
0.5 -1 0
0.625 -1 0
0.5 -0.875 0
0.625 -0.875 0
0.625 -1 0
0.75 -1 0
0.625 -0.875 0
0.75 -0.875 0
0.5 -0.875 0
0.625 -0.875 0
0.5 -0.75 0
0.625 -0.75 0
0.625 -0.875 0
0.75 -0.875 0
0.625 -0.75 0
0.75 -0.75 0
-0.25 -0.25 0
-0.125 -0.25 0
-0.25 -0.125 0
-0.125 -0.125 0
-0.125 -0.25 0
0 -0.25 0
-0.125 -0.125 0
0 -0.125 0
-0.75 0.125 0
-0.625 0.125 0
-0.75 0.25 0
-0.625 0.25 0
-0.625 0.125 0
-0.5 0.125 0
-0.625 0.25 0
-0.5 0.25 0
-1 0.25 0
-0.875 0.25 0
-1 0.375 0
-0.875 0.375 0
-1 0.375 0
-0.875 0.375 0
-1 0.5 0
-0.875 0.5 0
-0.875 0.375 0
-0.75 0.375 0
-0.875 0.5 0
-0.75 0.5 0
0.875 -0.75 0
1 -0.75 0
0.875 -0.625 0
1 -0.625 0
-0.25 0 0
-0.125 0 0
-0.25 0.125 0
-0.125 0.125 0
-0.125 0.125 0
0 0.125 0
-0.125 0.25 0
0 0.25 0
-1 0.75 0
-0.875 0.75 0
-1 0.875 0
-0.875 0.875 0
-1 0.875 0
-0.875 0.875 0
-1 1 0
-0.875 1 0
-0.875 0.875 0
-0.75 0.875 0
-0.875 1 0
-0.75 1 0
-0.5 0 0
-0.375 0 0
-0.5 0.125 0
-0.375 0.125 0
-0.375 0 0
-0.25 0 0
-0.375 0.125 0
-0.25 0.125 0
0.125 -0.25 0
0.25 -0.25 0
0.125 -0.125 0
0.25 -0.125 0
0.25 -0.125 0
0.375 -0.125 0
0.25 0 0
0.375 0 0
-1 0.5 0
-0.875 0.5 0
-1 0.625 0
-0.875 0.625 0
-1 0.625 0
-0.875 0.625 0
-1 0.75 0
-0.875 0.75 0
-0.125 0.875 0
0 0.875 0
-0.125 1 0
0 1 0
-0.625 0.25 0
-0.5625 0.25 0
-0.625 0.3125 0
-0.5625 0.3125 0
-0.5625 0.25 0
-0.5 0.25 0
-0.5625 0.3125 0
-0.5 0.3125 0
-0.625 0.3125 0
-0.5625 0.3125 0
-0.625 0.375 0
-0.5625 0.375 0
-0.5625 0.3125 0
-0.5 0.3125 0
-0.5625 0.375 0
-0.5 0.375 0
-0.75 0.375 0
-0.6875 0.375 0
-0.75 0.4375 0
-0.6875 0.4375 0
-0.6875 0.375 0
-0.625 0.375 0
-0.6875 0.4375 0
-0.625 0.4375 0
-0.75 0.4375 0
-0.6875 0.4375 0
-0.75 0.5 0
-0.6875 0.5 0
-0.6875 0.4375 0
-0.625 0.4375 0
-0.6875 0.5 0
-0.625 0.5 0
-0.625 0.375 0
-0.5625 0.375 0
-0.625 0.4375 0
-0.5625 0.4375 0
-0.5625 0.4375 0
-0.5 0.4375 0
-0.5625 0.5 0
-0.5 0.5 0
-0.25 0.125 0
-0.1875 0.125 0
-0.25 0.1875 0
-0.1875 0.1875 0
-0.1875 0.125 0
-0.125 0.125 0
-0.1875 0.1875 0
-0.125 0.1875 0
-0.25 0.1875 0
-0.1875 0.1875 0
-0.25 0.25 0
-0.1875 0.25 0
-0.1875 0.1875 0
-0.125 0.1875 0
-0.1875 0.25 0
-0.125 0.25 0
-0.875 0.75 0
-0.8125 0.75 0
-0.875 0.8125 0
-0.8125 0.8125 0
-0.8125 0.75 0
-0.75 0.75 0
-0.8125 0.8125 0
-0.75 0.8125 0
-0.875 0.8125 0
-0.8125 0.8125 0
-0.875 0.875 0
-0.8125 0.875 0
-0.8125 0.8125 0
-0.75 0.8125 0
-0.8125 0.875 0
-0.75 0.875 0
-0.5 0.125 0
-0.4375 0.125 0
-0.5 0.1875 0
-0.4375 0.1875 0
-0.4375 0.125 0
-0.375 0.125 0
-0.4375 0.1875 0
-0.375 0.1875 0
-0.5 0.1875 0
-0.4375 0.1875 0
-0.5 0.25 0
-0.4375 0.25 0
-0.4375 0.1875 0
-0.375 0.1875 0
-0.4375 0.25 0
-0.375 0.25 0
-0.375 0.125 0
-0.3125 0.125 0
-0.375 0.1875 0
-0.3125 0.1875 0
-0.3125 0.125 0
-0.25 0.125 0
-0.3125 0.1875 0
-0.25 0.1875 0
-0.375 0.1875 0
-0.3125 0.1875 0
-0.375 0.25 0
-0.3125 0.25 0
-0.3125 0.1875 0
-0.25 0.1875 0
-0.3125 0.25 0
-0.25 0.25 0
-0.125 0.25 0
-0.0625 0.25 0
-0.125 0.3125 0
-0.0625 0.3125 0
-0.0625 0.25 0
0 0.25 0
-0.0625 0.3125 0
0 0.3125 0
-0.125 0.3125 0
-0.0625 0.3125 0
-0.125 0.375 0
-0.0625 0.375 0
-0.0625 0.3125 0
0 0.3125 0
-0.0625 0.375 0
0 0.375 0
-0.375 0.25 0
-0.3125 0.25 0
-0.375 0.3125 0
-0.3125 0.3125 0
-0.3125 0.25 0
-0.25 0.25 0
-0.3125 0.3125 0
-0.25 0.3125 0
-0.375 0.3125 0
-0.3125 0.3125 0
-0.375 0.375 0
-0.3125 0.375 0
-0.3125 0.3125 0
-0.25 0.3125 0
-0.3125 0.375 0
-0.25 0.375 0
-0.375 0.375 0
-0.3125 0.375 0
-0.375 0.4375 0
-0.3125 0.4375 0
-0.3125 0.375 0
-0.25 0.375 0
-0.3125 0.4375 0
-0.25 0.4375 0
-0.375 0.4375 0
-0.3125 0.4375 0
-0.375 0.5 0
-0.3125 0.5 0
-0.3125 0.4375 0
-0.25 0.4375 0
-0.3125 0.5 0
-0.25 0.5 0
-0.875 0.5 0
-0.8125 0.5 0
-0.875 0.5625 0
-0.8125 0.5625 0
-0.8125 0.5 0
-0.75 0.5 0
-0.8125 0.5625 0
-0.75 0.5625 0
-0.875 0.5625 0
-0.8125 0.5625 0
-0.875 0.625 0
-0.8125 0.625 0
-0.8125 0.5625 0
-0.75 0.5625 0
-0.8125 0.625 0
-0.75 0.625 0
-0.875 0.625 0
-0.8125 0.625 0
-0.875 0.6875 0
-0.8125 0.6875 0
-0.8125 0.625 0
-0.75 0.625 0
-0.8125 0.6875 0
-0.75 0.6875 0
-0.875 0.6875 0
-0.8125 0.6875 0
-0.875 0.75 0
-0.8125 0.75 0
-0.8125 0.6875 0
-0.75 0.6875 0
-0.8125 0.75 0
-0.75 0.75 0
-0.75 0.625 0
-0.6875 0.625 0
-0.75 0.6875 0
-0.6875 0.6875 0
-0.6875 0.625 0
-0.625 0.625 0
-0.6875 0.6875 0
-0.625 0.6875 0
-0.75 0.6875 0
-0.6875 0.6875 0
-0.75 0.75 0
-0.6875 0.75 0
-0.6875 0.6875 0
-0.625 0.6875 0
-0.6875 0.75 0
-0.625 0.75 0
-0.625 0.625 0
-0.5625 0.625 0
-0.625 0.6875 0
-0.5625 0.6875 0
-0.5625 0.625 0
-0.5 0.625 0
-0.5625 0.6875 0
-0.5 0.6875 0
-0.625 0.6875 0
-0.5625 0.6875 0
-0.625 0.75 0
-0.5625 0.75 0
-0.5625 0.6875 0
-0.5 0.6875 0
-0.5625 0.75 0
-0.5 0.75 0
-0.75 0.875 0
-0.6875 0.875 0
-0.75 0.9375 0
-0.6875 0.9375 0
-0.6875 0.875 0
-0.625 0.875 0
-0.6875 0.9375 0
-0.625 0.9375 0
-0.75 0.9375 0
-0.6875 0.9375 0
-0.75 1 0
-0.6875 1 0
-0.6875 0.9375 0
-0.625 0.9375 0
-0.6875 1 0
-0.625 1 0
-0.625 0 0
-0.5625 0 0
-0.625 0.0625 0
-0.5625 0.0625 0
-0.5625 0 0
-0.5 0 0
-0.5625 0.0625 0
-0.5 0.0625 0
-0.625 0.0625 0
-0.5625 0.0625 0
-0.625 0.125 0
-0.5625 0.125 0
-0.5625 0.0625 0
-0.5 0.0625 0
-0.5625 0.125 0
-0.5 0.125 0
0.75 -0.25 0
0.8125 -0.25 0
0.75 -0.1875 0
0.8125 -0.1875 0
0.8125 -0.25 0
0.875 -0.25 0
0.8125 -0.1875 0
0.875 -0.1875 0
0.75 -0.1875 0
0.8125 -0.1875 0
0.75 -0.125 0
0.8125 -0.125 0
0.8125 -0.1875 0
0.875 -0.1875 0
0.8125 -0.125 0
0.875 -0.125 0
0.875 -0.25 0
0.9375 -0.25 0
0.875 -0.1875 0
0.9375 -0.1875 0
0.9375 -0.25 0
1 -0.25 0
0.9375 -0.1875 0
1 -0.1875 0
0.875 -0.1875 0
0.9375 -0.1875 0
0.875 -0.125 0
0.9375 -0.125 0
0.9375 -0.1875 0
1 -0.1875 0
0.9375 -0.125 0
1 -0.125 0
0.75 -0.125 0
0.8125 -0.125 0
0.75 -0.0625 0
0.8125 -0.0625 0
0.8125 -0.125 0
0.875 -0.125 0
0.8125 -0.0625 0
0.875 -0.0625 0
0.75 -0.0625 0
0.8125 -0.0625 0
0.75 0 0
0.8125 0 0
0.8125 -0.0625 0
0.875 -0.0625 0
0.8125 0 0
0.875 0 0
0.875 -0.125 0
0.9375 -0.125 0
0.875 -0.0625 0
0.9375 -0.0625 0
0.9375 -0.125 0
1 -0.125 0
0.9375 -0.0625 0
1 -0.0625 0
0.875 -0.0625 0
0.9375 -0.0625 0
0.875 0 0
0.9375 0 0
0.9375 -0.0625 0
1 -0.0625 0
0.9375 0 0
1 0 0
-0.75 0.25 0
-0.6875 0.25 0
-0.75 0.3125 0
-0.6875 0.3125 0
-0.6875 0.25 0
-0.625 0.25 0
-0.6875 0.3125 0
-0.625 0.3125 0
-0.75 0.3125 0
-0.6875 0.3125 0
-0.75 0.375 0
-0.6875 0.375 0
-0.6875 0.3125 0
-0.625 0.3125 0
-0.6875 0.375 0
-0.625 0.375 0
-0.125 0 0
-0.0625 0 0
-0.125 0.0625 0
-0.0625 0.0625 0
-0.125 0.0625 0
-0.0625 0.0625 0
-0.125 0.125 0
-0.0625 0.125 0
-0.0625 0.0625 0
0 0.0625 0
-0.0625 0.125 0
0 0.125 0
-0.25 0.25 0
-0.1875 0.25 0
-0.25 0.3125 0
-0.1875 0.3125 0
-0.1875 0.25 0
-0.125 0.25 0
-0.1875 0.3125 0
-0.125 0.3125 0
-0.25 0.3125 0
-0.1875 0.3125 0
-0.25 0.375 0
-0.1875 0.375 0
-0.1875 0.3125 0
-0.125 0.3125 0
-0.1875 0.375 0
-0.125 0.375 0
-0.1875 0.375 0
-0.125 0.375 0
-0.1875 0.4375 0
-0.125 0.4375 0
-0.125 0.375 0
-0.0625 0.375 0
-0.125 0.4375 0
-0.0625 0.4375 0
-0.0625 0.375 0
0 0.375 0
-0.0625 0.4375 0
0 0.4375 0
-0.125 0.4375 0
-0.0625 0.4375 0
-0.125 0.5 0
-0.0625 0.5 0
-0.0625 0.4375 0
0 0.4375 0
-0.0625 0.5 0
0 0.5 0
-0.5 0.25 0
-0.4375 0.25 0
-0.5 0.3125 0
-0.4375 0.3125 0
-0.4375 0.25 0
[...]
POINT_DATA 3120
SCALARS U double 1
LOOKUP_TABLE default
0 0 0 5.45325e-05 0 0 5.45325e-05 0.000117638 0 5.45325e-05 0 0.000138621 5.45325e-05 0.000117638 0.000138621 0.000261773 0 0 0.000117638 0.000190613 0 0 0.000190613 0.000260231 0.000117638 0.000190613 0.000261773 0.00035411 0 0.000138621 0 0.000322728 0.000261773 0.00035411 0.000542187 0.000552365 0.000322728 0.00045999 0.000488402 0.000673062 0.000542187 0.000547276 0.000776873 0.000788863 0.000547276 0.000552365 0.000788863 0.000693365 0.000260231 0.000296645 0.000354794 0.000415465 0.000296645 0.000370356 0.000415465 0.000601345 0.000354794 0.000415465 0.000418334 0.000501469 0.000415465 0.000601345 0.000501469 0.000845439 0.000418334 0.000501469 0.000439649 0.000557667 0.000439649 0.000557667 0.000417509 0.00046206 0 0.000374233 0 0.000516964 0.000374233 0.000707622 0.000516964 0.000981604 0 0.000516964 0 0.000663758 0.000516964 0.000981604 0.000663758 0.00125982 0.000138621 0.000200197 0.000230675 0.000309075 0.000200197 0.000261773 0.000309075 0.00040198 0.000230675 0.000309075 0.000322728 0.00045999 0.000309075 0.00040198 0.00045999 0.000542187 0 0 0.000195333 0.000114153 0 0 0.000114153 0 0.000195333 0.000114153 0.000892057 0.000508364 0.000114153 0 0.000508364 0 0.000190613 0.000225422 0.000272361 0.000315337 0.000225422 0.000260231 0.000315337 0.000354794 0.000272361 0.000315337 0.00035411 0.000386685 0.000315337 0.000354794 0.000386685 0.000418334 0 0.000161364 0 0.000254746 0.000161364 0.000322728 0.000254746 0.000488402 0 0.000254746 0 0.000374233 0.000254746 0.000488402 0.000374233 0.000707622 0.00035411 0.000386685 0.000453237 0.0004414 0.000386685 0.000418334 0.0004414 0.000439649 0.000453237 0.0004414 0.000552365 0.000483532 0.0004414 0.000439649 0.000483532 0.000417509 0 0 0.000130115 0.000154146 0 0 0.000154146 0.000173748 0.000130115 0.000154146 0.000260231 0.000296645 0.000154146 0.000173748 0.000296645 0.000370356 0 0 0.000173748 0.000196061 0 0 0.000196061 0.000221193 0.000173748 0.000196061 0.000370356 0.000503391 0.000196061 0.000221193 0.000503391 0.000695391 0.000370356 0.000503391 0.000601345 0.00115059 0.000503391 0.000695391 0.00115059 0.00200357 0.000601345 0.00115059 0.000845439 0.00207315 0.00115059 0.00200357 0.00207315 0.00542964 0 0 0.000221193 0.000229244 0 0 0.000229244 0.000195333 0.000221193 0.000229244 0.000695391 0.000908657 0.000229244 0.000195333 0.000908657 0.000892057 0.000552365 0.000483532 0.000693365 0.000513591 0.000483532 0.000417509 0.000513591 0.000330334 0.000981604 0.00133799 0.00125982 0.00171099 0.00133799 0.0015158 0.00171099 0.00192888 0 0.000663758 0 0.000781179 0 0.000781179 0 0.00083263 0.000781179 0.00147979 0.00083263 0.00157382 0.000508364 0 0.00204983 0 0.00090701 0.000556227 0.00118488 0.000666791 0.000666791 0 0.000818503 0 0 0.000610968 0 0.000336638 0 0.000336638 0 0 0.000336638 0.000634492 0 0 0.00110802 0.00109509 0.0015158 0.00147461 0.00109509 0.00090701 0.00147461 0.00118488 0.00046206 0.00104538 0.000287112 0.000609746 0.000609746 0.00210581 0 0 0 0.00083263 0 0.000780268 0 0.000780268 0 0.000610968 0.000413175 0 0 0 0.00171099 0.00181994 0.00186052 0.00202053 0.00181994 0.00192888 0.00202053 0.00210638 0.00186052 0.00202053 0.00199846 0.00216757 0.00202053 0.00210638 0.00216757 0.00225888 0.00147979 0.00176175 0.0015268 0.00184365 0.00176175 0.00199846 0.00184365 0.00209073 0.0015268 0.00184365 0.00157382 0.00187551 0.00184365 0.00209073 0.00187551 0.00212633 0.00199846 0.00216757 0.00209073 0.00226847 0.00226847 0.00236304 0.00230631 0.00240408 0.00118488 0.000925834 0.00132101 0.00105824 0.000925834 0.000666791 0.00105824 0.000742647 0.00132101 0.00105824 0.00147386 0.00117526 0.00105824 0.000742647 0.00117526 0.000818503 0.000610968 0.000887423 0.000473803 0.000704903 0.000887423 0.00114838 0.000704903 0.000910506 0.000473803 0.000704903 0.000336638 0.000485565 0.000704903 0.000910506 0.000485565 0.000634492 0.0015158 0.0014952 0.00172234 0.00172559 0.0014952 0.00147461 0.00172559 0.001658 0.00172234 0.00172559 0.00192888 0.00192942 0.00172559 0.001658 0.00192942 0.00185592 0.00147461 0.00132974 0.001658 0.00152704 0.00132974 0.00118488 0.00152704 0.00132101 0.001658 0.00152704 0.00185592 0.00170263 0.00152704 0.00132101 0.00170263 0.00147386 0.000818503 0.000409252 0.000891889 0.000456619 0.000409252 0 0.000456619 0 0.000891889 0.000456619 0.000955403 0.00048985 0.000456619 0 0.00048985 0 0.00185592 0.00170263 0.00203363 0.00186474 0.00170263 0.00147386 0.00186474 0.00161224 0.00203363 0.00186474 0.00217794 0.0019975 0.00186474 0.00161224 0.0019975 0.00172719 0.00217794 0.0019975 0.00227759 0.00208795 0.0019975 0.00172719 0.00208795 0.00180417 0.00227759 0.00208795 0.00231724 0.00212491 0.00208795 0.00180417 0.00212491 0.00183525 0.00083263 0.00120322 0.000806449 0.00119562 0.00120322 0.00157382 0.00119562 0.00154445 0.000806449 0.00119562 0.000780268 0.00113516 0.00119562 0.00154445 0.00113516 0.00146856 0.000780268 0.00113516 0.000695618 0.00103398 0.00113516 0.00146856 0.00103398 0.00133567 0.000695618 0.00103398 0.000610968 0.000887423 0.00103398 0.00133567 0.000887423 0.00114838 0.00146856 0.00175842 0.00133567 0.00160002 0.00175842 0.00199497 0.00160002 0.0018142 0.00133567 0.00160002 0.00114838 0.00137514 0.00160002 0.0018142 0.00137514 0.00156005 0.00199497 0.00216287 0.0018142 0.00196762 0.00216287 0.00225467 0.00196762 0.00205146 0.0018142 0.00196762 0.00156005 0.0016914 0.00196762 0.00205146 0.0016914 0.00176271 0.000634492 0.000756138 0.000317246 0.000386886 0.000756138 0.00085798 0.000386886 0.000439275 0.000317246 0.000386886 0 0 0.000386886 0.000439275 0 0 0.000969338 0.00105689 0.00114155 0.001245 0.00105689 0.00110802 0.001245 0.00131191 0.00114155 0.001245 0.00133799 0.00142689 0.001245 0.00131191 0.00142689 0.0015158 0.0161752 0.0150097 0.0150128 0.0139775 0.0150097 0.0123512 0.0139775 0.0115803 0.0150128 0.0139775 0.0123546 0.0115813 0.0139775 0.0115803 0.0115813 0.00968246 0.0123512 0.00771465 0.0115803 0.00721482 0.00771465 0 0.00721482 0 0.0115803 0.00721482 0.00968246 0.00617349 0.00721482 0 0.00617349 0 0.0123546 0.0115813 0.00771673 0.00721563 0.0115813 0.00968246 0.00721563 0.0061737 0.00771673 0.00721563 0 0 0.00721563 0.0061737 0 0 0.00968246 0.00617349 0.0061737 0.00414537 0.00617349 0 0.00414537 0 0.0061737 0.00414537 0 0 0.00414537 0 0 0 0.00125982 0.00148541 0.00137157 0.00164509 0.00148541 0.00171099 0.00164509 0.00186052 0.00137157 0.00164509 0.00147979 0.00176175 0.00164509 0.00186052 0.00176175 0.00199846 0.000556227 0.000328325 0.000611509 0.000319178 0.000611509 0.000319178 0.000666791 0.000333395 0.000319178 0 0.000333395 0 0.00147386 0.00117526 0.00161224 0.00128398 0.00117526 0.000818503 0.00128398 0.000891889 0.00161224 0.00128398 0.00172719 0.00137478 0.00128398 0.000891889 0.00137478 0.000955403 0.00137478 0.000955403 0.00143575 0.000999025 0.000955403 0.00048985 0.000999025 0.000512154 0.00048985 0 0.000512154 0 0.000999025 0.000512154 0.00101614 0.000521182 0.000512154 0 0.000521182 0 0.00192888 0.00192942 0.00210638 0.00211536 0.00192942 0.00185592 0.00211536 0.00203363 0.00157382 0.00187551 0.00154445 0.0018507 0.00154445 0.0018507 0.00146856 0.00175842 0.0018507 0.00209692 0.00175842 0.00199497 0.00114838 0.00137514 0.000910506 0.00109098 0.00137514 0.00156005 0.00109098 0.0012372 0.000910506 0.00109098 0.000634492 0.000756138 0.00109098 0.0012372 0.000756138 0.00085798 0.00085798 0.000930735 0.000439275 0.000476727 0.000930735 0.000970414 0.000476727 0.000496981 0.000439275 0.000476727 0 0 0.000476727 0.000496981 0 0 0.000488402 0.000580732 0.000598012 0.000711516 0.000580732 0.000673062 0.000711516 0.000810916 0.000598012 0.000711516 0.000707622 0.00085298 0.000711516 0.000810916 0.00085298 0.000969338 0.000673062 0.000739784 0.000810916 0.00088588 0.000739784 0.000776873 0.00088588 0.000928136 0.000810916 0.00088588 0.000969338 0.00105689 0.00088588 0.000928136 0.00105689 0.00110802 0.000776873 0.000782868 0.000928136 0.000942505 0.000782868 0.000788863 0.000942505 0.000920658 0.000928136 0.000942505 0.00110802 0.00110156 0.000942505 0.000920658 0.00110156 0.00109509 0.000788863 0.000741114 0.000920658 0.000871719 0.000741114 0.000693365 0.000871719 0.000782415 0.000920658 0.000871719 0.00109509 0.00100105 0.000871719 0.000782415 0.00100105 0.00090701 0.0012372 0.00134147 0.00085798 0.000930735 0.00134147 0.00139826 0.000930735 0.000970414 0.00045999 0.000501089 0.000566526 0.000613504 0.000501089 0.000542187 0.000613504 0.00065953 0.000566526 0.000613504 0.000673062 0.000739784 0.000613504 0.00065953 0.000739784 0.000776873 0.0023757 0.00228452 0.00225928 0.00217095 0.00146081 0.00101614 0.00144055 0.00100248 0.000501469 0.000673454 0.000529568 0.000694402 0.000673454 0.000845439 0.000694402 0.00102622 0.000529568 0.000694402 0.000557667 0.000724752 0.000694402 0.00102622 0.000724752 0.00109828 0.000557667 0.000724752 0.000509864 0.000721903 0.000724752 0.00109828 0.000721903 0.00112247 0.000509864 0.000721903 0.00046206 0.00075372 0.000721903 0.00112247 0.00075372 0.00104538 0.000693365 0.000603478 0.000782415 0.000669229 0.000603478 0.000513591 0.000669229 0.000527972 0.000782415 0.000669229 0.00090701 0.000731619 0.000669229 0.000527972 0.000731619 0.000556227 0.00101614 0.000521182 0.00100248 0.000513823 0.000521182 0 0.000513823 0 0.00100248 0.000513823 0.000952853 0.000488973 0.000513823 0 0.000488973 0 0.000513591 0.000421963 0.000527972 0.000372966 0.000421963 0.000330334 0.000372966 0.000230808 0.000527972 0.000372966 0.000556227 0.000328325 0.000707622 0.00085298 0.000844613 0.00100716 0.00085298 0.000969338 0.00100716 0.00114155 0.000844613 0.00100716 0.000981604 0.0011598 0.00100716 0.00114155 0.0011598 0.00133799 0.000488973 0 0.000444774 0 0.000444774 0 0.00038239 0 0.00176662 0.00169874 0.00140255 0.00134654 0.00139826 0.00140255 0.000970414 0.000972723 0.000970414 0.000972723 0.000496981 0.000498463 0.000496981 0.000498463 0 0 0.000498463 0.000479088 0 0 0.000479088 0.000439475 0 0 0.000439475 0.000379744 0 0 0.00038239 0 0.000303659 0 0.000590291 0.000303659 0.000413175 0.000206587 0.000303659 0 0.000206587 0 0.000588954 0.000413175 0.000302613 0.000206587 0.000379744 0.000302613 0 0 0.000302613 0.000206587 0 0 0.000695391 0.000802024 0.00134948 0.00148337 0.000802024 0.000908657 0.00148337 0.00165822 0.00134948 0.00148337 0.00200357 0.00263314 0.00148337 0.00165822 0.00263314 0.00301986 0.000908657 0.000900357 0.00165822 0.00173435 0.000900357 0.000892057 0.00173435 0.00167078 0.00165822 0.00173435 0.00301986 0.00317812 0.00173435 0.00167078 0.00317812 0.00310614 0.00200357 0.00263314 0.00371661 0.00448877 0.00371661 0.00448877 0.00542964 0.00765436 0.00448877 0.00527079 0.00765436 0.00880284 0.00527079 0.00558184 0.00880284 0.00935305 0.00558184 0.00550183 0.00935305 0.0092683 0.000892057 0.000700211 0.00167078 0.00147229 0.000700211 0.000508364 0.00147229 0.0012791 0.00167078 0.00147229 0.00310614 0.00279919 0.00147229 0.0012791 0.00279919 0.00204983 0.000663758 0.000961792 0.000722469 0.00106367 0.000961792 0.00125982 0.00106367 0.00137157 0.000722469 0.00106367 0.000781179 0.00113049 0.00106367 0.00137157 0.00113049 0.00147979 0.000417509 0.000439785 0.000373921 0.000360727 0.000439785 0.00046206 0.000360727 0.000374586 0.000373921 0.000360727 0.000330334 0.000278463 0.000360727 0.000374586 0.000278463 0.000287112 0.00550183 0.00494461 0.0092683 0.00848144 0.000330334 0.000278463 0.000230808 0.000161843 0.000278463 0.000287112 0.000161843 0.000162971 0.000161843 0.000162971 0 0 0.00204983 0.00102492 0.00388584 0.0021476 0.00102492 0 0.0021476 0 0.0021476 0 0.00418545 0 0.000845439 0.0014593 0.00102622 0.00161934 0.0014593 0.00207315 0.00161934 0.00272334 0.00102622 0.00161934 0.00109828 0.00180943 0.00161934 0.00272334 0.00180943 0.00312101 0.00207315 0.0037514 0.00272334 0.0045411 0.0037514 0.00542964 0.0045411 0.00767693 0.0045411 0.00767693 0.00533455 0.00883784 0.000287112 0.000448429 0.000162971 0.00020638 0.000448429 0.000609746 0.00020638 0.000304873 0.000162971 0.00020638 0 0 0.00020638 0.000304873 0 0 0.00109828 0.00180943 0.00112247 0.00187815 0.00180943 0.00312101 0.00187815 0.0032804 0.00112247 0.00187815 0.00104538 0.00180205 0.00187815 0.0032804 0.00180205 0.00320723 0.00533455 0.00883784 0.0056472 0.00939361 0.0056472 0.00939361 0.00554008 0.00927472 0.00104538 0.00180205 0.000827563 0.00157799 0.00180205 0.00320723 0.00157799 0.00288795 0.000827563 0.00157799 0.000609746 0.00135778 0.00157799 0.00288795 0.00135778 0.00210581 0.00210581 0.00391836 0.0010529 0.00216614 0.0010529 0.00216614 0 0 0.00216614 0.00419764 0 0 0.00542964 0.00765436 0.00767693 0.0106719 0.0143942 0.0153186 0.015329 0.0163203 0.0153186 0.0152081 0.0163203 0.0162387 0.015329 0.0163203 0.0152249 0.0162448 0.0163203 0.0162387 0.0162448 0.0161752 0.00263314 0.0028265 0.00356096 0.00373718 0.0028265 0.00301986 0.00373718 0.00394518 0.00356096 0.00373718 0.00448877 0.00487978 0.00373718 0.00394518 0.00487978 0.00527079 0.00301986 0.00309899 0.00394518 0.00411835 0.00309899 0.00317812 0.00411835 0.00417735 0.00394518 0.00411835 0.00527079 0.00542631 0.00411835 0.00417735 0.00542631 0.00558184 0.00172719 0.00155098 0.00176568 0.00159623 0.00155098 0.00137478 0.00159623 0.00140526 0.00176568 0.00159623 0.00180417 0.00162727 0.00159623 0.00140526 0.00162727 0.00143575 0.00317812 0.00314213 0.00417735 0.00419626 0.00314213 0.00310614 0.00419626 0.00409616 0.00417735 0.00419626 0.00558184 0.00554183 0.00419626 0.00409616 0.00554183 0.00550183 0.00310614 0.00295266 0.00409616 0.00395076 0.00295266 0.00279919 0.00395076 0.00367342 0.00409616 0.00395076 0.00550183 0.00522322 0.00395076 0.00367342 0.00522322 0.00494461 0.00279919 0.00242451 0.00367342 0.00332154 0.00242451 0.00204983 0.00332154 0.00296784 0.00367342 0.00332154 0.00494461 0.00456968 0.00332154 0.00296784 0.00456968 0.00388584 0.00494461 0.00456968 0.00671302 0.00597156 0.00456968 0.00388584 0.00597156 0.00517529 0.00671302 0.00597156 0.00848144 0.00788815 0.00597156 0.00517529 0.00788815 0.00691387 0.00180417 0.00162727 0.00181971 0.00164825 0.00162727 0.00143575 0.00164825 0.00144927 0.00181971 0.00164825 0.00183525 0.00165376 0.00164825 0.00144927 0.00165376 0.00146081 0.00136781 0.00116381 0.00131103 0.00112252 0.00116381 0.000952853 0.00112252 0.000911652 0.00131103 0.00112252 0.00124404 0.00106131 0.00112252 0.000911652 0.00106131 0.000864342 0.00143575 0.00121739 0.00144927 0.00123695 0.00121739 0.000999025 0.00123695 0.00100758 0.00144927 0.00123695 0.00146081 0.00123848 0.00123695 0.00100758 0.00123848 0.00101614 0.00124404 0.00106131 0.00116171 0.00099417 0.00106131 0.000864342 0.00099417 0.000808427 0.00116171 0.00099417 0.00106962 0.000912851 0.00099417 0.000808427 0.000912851 0.000743076 0.000952853 0.000720913 0.000911652 0.000694406 0.000720913 0.000488973 0.000694406 0.000466873 0.000911652 0.000694406 0.000864342 0.000658627 0.000694406 0.000466873 0.000658627 0.000444774 0.00388584 0.00301672 0.00517529 0.00423438 0.00301672 0.0021476 0.00423438 0.00316653 0.00517529 0.00423438 0.00691387 0.00577528 0.00423438 0.00316653 0.00577528 0.00418545 0.000864342 0.000658627 0.000808427 0.000615711 0.000658627 0.000444774 0.000615711 0.000413582 0.000808427 0.000615711 0.000743076 0.000566467 0.000615711 0.000413582 0.000566467 0.00038239 0.00272334 0.00363222 0.00292217 0.00381408 0.00363222 0.0045411 0.00381408 0.00493782 0.00292217 0.00381408 0.00312101 0.00402543 0.00381408 0.00493782 0.00402543 0.00533455 0.00312101 0.00402543 0.0032007 0.00420104 0.00402543 0.00533455 0.00420104 0.00549087 0.0032007 0.00420104 0.0032804 0.00425805 0.00420104 0.00549087 0.00425805 0.0056472 0.0032804 0.00425805 0.00324381 0.00427639 0.00425805 0.0056472 0.00427639 0.00559364 0.00324381 0.00427639 0.00320723 0.00418522 0.00427639 0.00559364 0.00418522 0.00554008 0.00140255 0.00137454 0.00118764 0.00117617 0.00137454 0.00134654 0.00117617 0.00114544 0.00118764 0.00117617 0.000972723 0.000955487 0.00117617 0.00114544 0.000955487 0.000932745 0.00320723 0.00418522 0.00304759 0.00403379 0.00418522 0.00554008 0.00403379 0.0054103 0.00304759 0.00403379 0.00288795 0.00375203 0.00403379 0.0054103 0.00375203 0.00504559 0.00134654 0.00129448 0.00114544 0.00110539 0.00129448 0.0012335 0.00110539 0.00105049 0.00114544 0.00110539 0.000932745 0.000899396 0.00110539 0.00105049 0.000899396 0.000854913 0.0012335 0.00115502 0.00105049 0.000986622 0.00115502 0.00106561 0.000986622 0.000908324 0.00105049 0.000986622 0.000854913 0.000801898 0.000986622 0.000908324 0.000801898 0.000738666 0.00554008 0.0074074 0.0054103 0.00698038 0.0074074 0.00927472 0.00698038 0.00906727 0.0054103 0.00698038 0.00504559 0.00655954 0.00698038 0.00906727 0.00655954 0.00855347 0.000972723 0.000955487 0.000735593 0.00072778 0.000955487 0.000932745 0.00072778 0.000709376 0.000735593 0.00072778 0.000498463 0.000488776 0.00072778 0.000709376 0.000488776 0.000479088 0.00288795 0.00375203 0.00249688 0.00338309 0.00375203 0.00504559 0.00338309 0.00459582 0.00249688 0.00338309 0.00210581 0.00301208 0.00338309 0.00459582 0.00301208 0.00391836 0.000932745 0.000899396 0.000709376 0.000683874 0.000899396 0.000854913 0.000683874 0.000650898 0.000709376 0.000683874 0.000479088 0.000459281 0.000683874 0.000650898 0.000459281 0.000439475 0.000854913 0.000801898 0.000650898 0.000610062 0.000801898 0.000738666 0.000610062 0.000562699 0.000650898 0.000610062 0.000439475 0.000409609 0.000610062 0.000562699 0.000409609 0.000379744 0.00504559 0.00655954 0.00459582 0.00599988 0.00655954 0.00855347 0.00599988 0.00789909 0.00459582 0.00599988 0.00391836 0.00519539 0.00599988 0.00789909 0.00519539 0.00693392 0.00391836 0.00519539 0.00304225 0.00425474 0.00519539 0.00693392 0.00425474 0.00579215 0.00304225 0.00425474 0.00216614 0.00318189 0.00425474 0.00579215 0.00318189 0.00419764 0.00765436 0.0082286 0.00916311 0.0102098 0.0082286 0.00880284 0.0102098 0.0107839 0.00916311 0.0102098 0.0106719 0.0115807 0.0102098 0.0107839 0.0115807 0.0122732 0.00106962 0.000912851 0.000963192 0.000824876 0.000912851 0.000743076 0.000824876 0.00067036 0.000963192 0.000824876 0.000848503 0.000723863 0.000824876 0.00067036 0.000723863 0.000590291 0.00106561 0.000961672 0.000908324 0.000822466 0.000961672 0.000848503 0.000822466 0.000722908 0.000908324 0.000822466 0.000738666 0.000667753 0.000822466 0.000722908 0.000667753 0.000588954 0.000848503 0.000723863 0.000722908 0.000618389 0.000723863 0.000590291 0.000618389 0.000501733 0.000722908 0.000618389 0.000588954 0.000501064 0.000618389 0.000501733 0.000501064 0.000413175 0.000743076 0.000566467 0.00067036 0.000510261 0.000566467 0.00038239 0.000510261 0.000343025 0.00067036 0.000510261 0.000590291 0.000446975 0.000510261 0.000343025 0.000446975 0.000303659 0.00216757 0.00221322 0.00221802 0.00227686 0.00221322 0.00225888 0.00227686 0.0023138 0.00221802 0.00227686 0.00226847 0.00231576 0.00227686 0.0023138 0.00231576 0.00236304 0.00767693 0.0091744 0.00825739 0.0102279 0.0091744 0.0106719 0.0102279 0.0115894 0.00825739 0.0102279 0.00883784 0.0108073 0.0102279 0.0115894 0.0108073 0.0122877 0.00209073 0.0021796 0.00210853 0.00221082 0.0021796 0.00226847 0.00221082 0.00228739 0.00210853 0.00221082 0.00212633 0.00222233 0.00221082 0.00228739 0.00222233 0.00230631 0.000738666 0.000667753 0.000562699 0.000507904 0.000667753 0.000588954 0.000507904 0.000445784 0.000562699 0.000507904 0.000379744 0.000341179 0.000507904 0.000445784 0.000341179 0.000302613 0.0106719 0.0115807 0.0115894 0.0127787 0.0115807 0.0122732 0.0127787 0.013505 0.0115894 0.0127787 0.0122877 0.0135112 0.0127787 0.013505 0.0135112 0.0143942 0.00880284 0.00907795 0.0107839 0.0112426 0.00907795 0.00935305 0.0112426 0.0114364 0.0107839 0.0112426 0.0122732 0.0127792 0.0112426 0.0114364 0.0127792 0.013021 0.00935305 0.00931067 0.0114364 0.0115168 0.00931067 0.0092683 0.0115168 0.0113507 0.0114364 0.0115168 0.013021 0.0131025 0.0115168 0.0113507 0.0131025 0.0129408 0.0122732 0.0127792 0.013505 0.0140871 0.0127792 0.013021 0.0140871 0.0143332 0.013505 0