# vtk DataFile Version 3.0
#This file was generated by the deal.II library on 2021/4/23 at 0:45:47
ASCII
DATASET UNSTRUCTURED_GRID

FIELD FieldData 2
CYCLE 1 1 int
202
TIME 1 1 double
0.404
POINTS 6588 double
-1 -1 0
-0.75 -1 0
-1 -0.75 0
-0.75 -0.75 0
-0.75 -1 0
-0.5 -1 0
-0.75 -0.75 0
-0.5 -0.75 0
-1 -0.75 0
-0.75 -0.75 0
-1 -0.5 0
-0.75 -0.5 0
-0.5 -1 0
-0.25 -1 0
-0.5 -0.75 0
-0.25 -0.75 0
-0.5 -0.75 0
-0.25 -0.75 0
-0.5 -0.5 0
-0.25 -0.5 0
-0.75 -0.25 0
-0.625 -0.25 0
-0.75 -0.125 0
-0.625 -0.125 0
0.125 -0.75 0
0.25 -0.75 0
0.125 -0.625 0
0.25 -0.625 0
0.125 -0.625 0
0.25 -0.625 0
0.125 -0.5 0
0.25 -0.5 0
0 -0.375 0
0.125 -0.375 0
0 -0.25 0
0.125 -0.25 0
-1 -0.5 0
-0.875 -0.5 0
-1 -0.375 0
-0.875 -0.375 0
-0.875 -0.5 0
-0.75 -0.5 0
-0.875 -0.375 0
-0.75 -0.375 0
-1 -0.375 0
-0.875 -0.375 0
-1 -0.25 0
-0.875 -0.25 0
-0.875 -0.375 0
-0.75 -0.375 0
-0.875 -0.25 0
-0.75 -0.25 0
-1 -0.25 0
-0.875 -0.25 0
-1 -0.125 0
-0.875 -0.125 0
-0.875 -0.25 0
-0.75 -0.25 0
-0.875 -0.125 0
-0.75 -0.125 0
-1 -0.125 0
-0.875 -0.125 0
-1 0 0
-0.875 0 0
-0.875 -0.125 0
-0.75 -0.125 0
-0.875 0 0
-0.75 0 0
-0.25 -0.75 0
-0.125 -0.75 0
-0.25 -0.625 0
-0.125 -0.625 0
-0.25 -0.625 0
-0.125 -0.625 0
-0.25 -0.5 0
-0.125 -0.5 0
-0.125 -0.625 0
0 -0.625 0
-0.125 -0.5 0
0 -0.5 0
-0.25 -0.5 0
-0.125 -0.5 0
-0.25 -0.375 0
-0.125 -0.375 0
-0.125 -0.5 0
0 -0.5 0
-0.125 -0.375 0
0 -0.375 0
-0.25 -0.375 0
-0.125 -0.375 0
-0.25 -0.25 0
-0.125 -0.25 0
-0.125 -0.375 0
0 -0.375 0
-0.125 -0.25 0
0 -0.25 0
0 -1 0
0.125 -1 0
0 -0.875 0
0.125 -0.875 0
0.125 -1 0
0.25 -1 0
0.125 -0.875 0
0.25 -0.875 0
0.125 -0.875 0
0.25 -0.875 0
0.125 -0.75 0
0.25 -0.75 0
-0.5 -0.5 0
-0.375 -0.5 0
-0.5 -0.375 0
-0.375 -0.375 0
-0.375 -0.5 0
-0.25 -0.5 0
-0.375 -0.375 0
-0.25 -0.375 0
-0.5 -0.375 0
-0.375 -0.375 0
-0.5 -0.25 0
-0.375 -0.25 0
-0.375 -0.375 0
-0.25 -0.375 0
-0.375 -0.25 0
-0.25 -0.25 0
0.25 -1 0
0.375 -1 0
0.25 -0.875 0
0.375 -0.875 0
0.375 -1 0
0.5 -1 0
0.375 -0.875 0
0.5 -0.875 0
0.25 -0.875 0
0.375 -0.875 0
0.25 -0.75 0
0.375 -0.75 0
0.25 -0.75 0
0.375 -0.75 0
0.25 -0.625 0
0.375 -0.625 0
0.5 -1 0
0.625 -1 0
0.5 -0.875 0
0.625 -0.875 0
0.625 -1 0
0.75 -1 0
0.625 -0.875 0
0.75 -0.875 0
-0.25 -0.25 0
-0.125 -0.25 0
-0.25 -0.125 0
-0.125 -0.125 0
-1 0.25 0
-0.875 0.25 0
-1 0.375 0
-0.875 0.375 0
-1 0.375 0
-0.875 0.375 0
-1 0.5 0
-0.875 0.5 0
0.75 -1 0
0.875 -1 0
0.75 -0.875 0
0.875 -0.875 0
0.875 -1 0
1 -1 0
0.875 -0.875 0
1 -0.875 0
-1 0 0
-0.875 0 0
-1 0.125 0
-0.875 0.125 0
-0.875 0 0
-0.75 0 0
-0.875 0.125 0
-0.75 0.125 0
-1 0.125 0
-0.875 0.125 0
-1 0.25 0
-0.875 0.25 0
-0.875 0.125 0
-0.75 0.125 0
-0.875 0.25 0
-0.75 0.25 0
-1 0.625 0
-0.875 0.625 0
-1 0.75 0
-0.875 0.75 0
-0.75 -0.75 0
-0.625 -0.75 0
-0.75 -0.625 0
-0.625 -0.625 0
-0.625 -0.75 0
-0.5 -0.75 0
-0.625 -0.625 0
-0.5 -0.625 0
-0.75 -0.625 0
-0.625 -0.625 0
-0.75 -0.5 0
-0.625 -0.5 0
-0.625 -0.625 0
-0.5 -0.625 0
-0.625 -0.5 0
-0.5 -0.5 0
-1 0.75 0
-0.875 0.75 0
-1 0.875 0
-0.875 0.875 0
-1 0.875 0
-0.875 0.875 0
-1 1 0
-0.875 1 0
-0.25 -1 0
-0.125 -1 0
-0.25 -0.875 0
-0.125 -0.875 0
-0.125 -1 0
0 -1 0
-0.125 -0.875 0
0 -0.875 0
-0.25 -0.875 0
-0.125 -0.875 0
-0.25 -0.75 0
-0.125 -0.75 0
-0.125 -0.875 0
0 -0.875 0
-0.125 -0.75 0
0 -0.75 0
-0.5625 0.25 0
-0.5 0.25 0
-0.5625 0.3125 0
-0.5 0.3125 0
-0.625 0.3125 0
-0.5625 0.3125 0
-0.625 0.375 0
-0.5625 0.375 0
-0.5625 0.3125 0
-0.5 0.3125 0
-0.5625 0.375 0
-0.5 0.375 0
-0.6875 0.375 0
-0.625 0.375 0
-0.6875 0.4375 0
-0.625 0.4375 0
-0.75 0.4375 0
-0.6875 0.4375 0
-0.75 0.5 0
-0.6875 0.5 0
-0.6875 0.4375 0
-0.625 0.4375 0
-0.6875 0.5 0
-0.625 0.5 0
-0.625 0.375 0
-0.5625 0.375 0
-0.625 0.4375 0
-0.5625 0.4375 0
-0.25 0.125 0
-0.1875 0.125 0
-0.25 0.1875 0
-0.1875 0.1875 0
-0.1875 0.125 0
-0.125 0.125 0
-0.1875 0.1875 0
-0.125 0.1875 0
-0.1875 0.1875 0
-0.125 0.1875 0
-0.1875 0.25 0
-0.125 0.25 0
-0.875 0.625 0
-0.8125 0.625 0
-0.875 0.6875 0
-0.8125 0.6875 0
-0.8125 0.625 0
-0.75 0.625 0
-0.8125 0.6875 0
-0.75 0.6875 0
-0.875 0.6875 0
-0.8125 0.6875 0
-0.875 0.75 0
-0.8125 0.75 0
-0.8125 0.6875 0
-0.75 0.6875 0
-0.8125 0.75 0
-0.75 0.75 0
-0.875 0.75 0
-0.8125 0.75 0
-0.875 0.8125 0
-0.8125 0.8125 0
-0.8125 0.75 0
-0.75 0.75 0
-0.8125 0.8125 0
-0.75 0.8125 0
-0.875 0.8125 0
-0.8125 0.8125 0
-0.875 0.875 0
-0.8125 0.875 0
-0.8125 0.8125 0
-0.75 0.8125 0
-0.8125 0.875 0
-0.75 0.875 0
-0.5 -0.125 0
-0.4375 -0.125 0
-0.5 -0.0625 0
-0.4375 -0.0625 0
-0.4375 -0.125 0
-0.375 -0.125 0
-0.4375 -0.0625 0
-0.375 -0.0625 0
-0.4375 -0.0625 0
-0.375 -0.0625 0
-0.4375 0 0
-0.375 0 0
-0.375 -0.125 0
-0.3125 -0.125 0
-0.375 -0.0625 0
-0.3125 -0.0625 0
-0.3125 -0.125 0
-0.25 -0.125 0
-0.3125 -0.0625 0
-0.25 -0.0625 0
-0.375 -0.0625 0
-0.3125 -0.0625 0
-0.375 0 0
-0.3125 0 0
-0.3125 -0.0625 0
-0.25 -0.0625 0
-0.3125 0 0
-0.25 0 0
-0.5625 0 0
-0.5 0 0
-0.5625 0.0625 0
-0.5 0.0625 0
-0.625 0.0625 0
-0.5625 0.0625 0
-0.625 0.125 0
-0.5625 0.125 0
-0.5625 0.0625 0
-0.5 0.0625 0
-0.5625 0.125 0
-0.5 0.125 0
-0.375 -0.25 0
-0.3125 -0.25 0
-0.375 -0.1875 0
-0.3125 -0.1875 0
-0.3125 -0.25 0
-0.25 -0.25 0
-0.3125 -0.1875 0
-0.25 -0.1875 0
-0.375 -0.1875 0
-0.3125 -0.1875 0
-0.375 -0.125 0
-0.3125 -0.125 0
-0.3125 -0.1875 0
-0.25 -0.1875 0
-0.3125 -0.125 0
-0.25 -0.125 0
-0.625 0.125 0
-0.5625 0.125 0
-0.625 0.1875 0
-0.5625 0.1875 0
-0.625 0.1875 0
-0.5625 0.1875 0
-0.625 0.25 0
-0.5625 0.25 0
-0.5 0 0
-0.4375 0 0
-0.5 0.0625 0
-0.4375 0.0625 0
-0.4375 0 0
-0.375 0 0
-0.4375 0.0625 0
-0.375 0.0625 0
-0.5 0.0625 0
-0.4375 0.0625 0
-0.5 0.125 0
-0.4375 0.125 0
-0.4375 0.0625 0
-0.375 0.0625 0
-0.4375 0.125 0
-0.375 0.125 0
0 -0.75 0
0.0625 -0.75 0
0 -0.6875 0
0.0625 -0.6875 0
0.0625 -0.75 0
0.125 -0.75 0
0.0625 -0.6875 0
0.125 -0.6875 0
0 -0.6875 0
0.0625 -0.6875 0
0 -0.625 0
0.0625 -0.625 0
0.0625 -0.6875 0
0.125 -0.6875 0
0.0625 -0.625 0
0.125 -0.625 0
-0.5 0.1875 0
-0.4375 0.1875 0
-0.5 0.25 0
-0.4375 0.25 0
-0.25 -0.125 0
-0.1875 -0.125 0
-0.25 -0.0625 0
-0.1875 -0.0625 0
-0.1875 -0.125 0
-0.125 -0.125 0
-0.1875 -0.0625 0
-0.125 -0.0625 0
-0.25 -0.0625 0
-0.1875 -0.0625 0
-0.25 0 0
-0.1875 0 0
-0.1875 -0.0625 0
-0.125 -0.0625 0
-0.1875 0 0
-0.125 0 0
-0.125 -0.125 0
-0.0625 -0.125 0
-0.125 -0.0625 0
-0.0625 -0.0625 0
-0.125 -0.0625 0
-0.0625 -0.0625 0
-0.125 0 0
-0.0625 0 0
-0.625 -0.125 0
-0.5625 -0.125 0
-0.625 -0.0625 0
-0.5625 -0.0625 0
-0.5625 -0.125 0
-0.5 -0.125 0
-0.5625 -0.0625 0
-0.5 -0.0625 0
-0.625 -0.0625 0
-0.5625 -0.0625 0
-0.625 0 0
-0.5625 0 0
-0.5625 -0.0625 0
-0.5 -0.0625 0
-0.5625 0 0
-0.5 0 0
-0.625 -0.25 0
-0.5625 -0.25 0
-0.625 -0.1875 0
-0.5625 -0.1875 0
-0.5625 -0.25 0
-0.5 -0.25 0
-0.5625 -0.1875 0
-0.5 -0.1875 0
-0.625 -0.1875 0
-0.5625 -0.1875 0
-0.625 -0.125 0
-0.5625 -0.125 0
-0.5625 -0.1875 0
-0.5 -0.1875 0
-0.5625 -0.125 0
-0.5 -0.125 0
-0.75 -0.125 0
-0.6875 -0.125 0
-0.75 -0.0625 0
-0.6875 -0.0625 0
-0.6875 -0.125 0
-0.625 -0.125 0
-0.6875 -0.0625 0
-0.625 -0.0625 0
-0.75 -0.0625 0
-0.6875 -0.0625 0
-0.75 0 0
-0.6875 0 0
-0.6875 -0.0625 0
-0.625 -0.0625 0
-0.6875 0 0
-0.625 0 0
-0.875 0.375 0
-0.8125 0.375 0
-0.875 0.4375 0
-0.8125 0.4375 0
-0.8125 0.375 0
-0.75 0.375 0
-0.8125 0.4375 0
-0.75 0.4375 0
-0.875 0.4375 0
-0.8125 0.4375 0
-0.875 0.5 0
-0.8125 0.5 0
-0.5 -0.25 0
-0.4375 -0.25 0
-0.5 -0.1875 0
-0.4375 -0.1875 0
-0.4375 -0.25 0
-0.375 -0.25 0
-0.4375 -0.1875 0
-0.375 -0.1875 0
0 -0.625 0
0.0625 -0.625 0
0 -0.5625 0
0.0625 -0.5625 0
0.0625 -0.625 0
0.125 -0.625 0
0.0625 -0.5625 0
0.125 -0.5625 0
0 -0.5625 0
0.0625 -0.5625 0
0 -0.5 0
0.0625 -0.5 0
0.0625 -0.5625 0
0.125 -0.5625 0
0.0625 -0.5 0
0.125 -0.5 0
-0.125 0 0
-0.0625 0 0
-0.125 0.0625 0
-0.0625 0.0625 0
-0.125 0.0625 0
-0.0625 0.0625 0
-0.125 0.125 0
-0.0625 0.125 0
-0.0625 0.0625 0
0 0.0625 0
-0.0625 0.125 0
0 0.125 0
0 -0.5 0
0.0625 -0.5 0
0 -0.4375 0
0.0625 -0.4375 0
0.0625 -0.5 0
0.125 -0.5 0
0.0625 -0.4375 0
0.125 -0.4375 0
0 -0.4375 0
0.0625 -0.4375 0
0 -0.375 0
0.0625 -0.375 0
0.0625 -0.4375 0
0.125 -0.4375 0
0.0625 -0.375 0
0.125 -0.375 0
-0.75 0.3125 0
-0.6875 0.3125 0
-0.75 0.375 0
-0.6875 0.375 0
-0.6875 0.3125 0
-0.625 0.3125 0
-0.6875 0.375 0
-0.625 0.375 0
0.0625 -0.0625 0
0.125 -0.0625 0
0.0625 0 0
0.125 0 0
-0.0625 0.125 0
0 0.125 0
-0.0625 0.1875 0
0 0.1875 0
-0.0625 0.1875 0
0 0.1875 0
-0.0625 0.25 0
0 0.25 0
-1 0.5 0
-0.9375 0.5 0
-1 0.5625 0
-0.9375 0.5625 0
-0.9375 0.5 0
-0.875 0.5 0
-0.9375 0.5625 0
-0.875 0.5625 0
-1 0.5625 0
-0.9375 0.5625 0
-1 0.625 0
-0.9375 0.625 0
-0.9375 0.5625 0
-0.875 0.5625 0
-0.9375 0.625 0
-0.875 0.625 0
-0.8125 0.5 0
-0.75 0.5 0
-0.8125 0.5625 0
-0.75 0.5625 0
-0.125 -0.75 0
-0.0625 -0.75 0
-0.125 -0.6875 0
-0.0625 -0.6875 0
-0.0625 -0.75 0
0 -0.75 0
-0.0625 -0.6875 0
0 -0.6875 0
-0.125 -0.6875 0
-0.0625 -0.6875 0
-0.125 -0.625 0
-0.0625 -0.625 0
-0.0625 -0.6875 0
0 -0.6875 0
-0.0625 -0.625 0
0 -0.625 0
0 -0.875 0
0.0625 -0.875 0
0 -0.8125 0
0.0625 -0.8125 0
0.0625 -0.875 0
0.125 -0.875 0
0.0625 -0.8125 0
0.125 -0.8125 0
0 -0.8125 0
0.0625 -0.8125 0
0 -0.75 0
0.0625 -0.75 0
0.0625 -0.8125 0
0.125 -0.8125 0
0.0625 -0.75 0
0.125 -0.75 0
-0.875 0.875 0
-0.8125 0.875 0
-0.875 0.9375 0
-0.8125 0.9375 0
-0.8125 0.875 0
-0.75 0.875 0
-0.8125 0.9375 0
-0.75 0.9375 0
-0.875 0.9375 0
-0.8125 0.9375 0
-0.875 1 0
-0.8125 1 0
-0.8125 0.9375 0
-0.75 0.9375 0
-0.8125 1 0
-0.75 1 0
0.125 -0.5 0
0.1875 -0.5 0
0.125 -0.4375 0
0.1875 -0.4375 0
0.1875 -0.5 0
0.25 -0.5 0
0.1875 -0.4375 0
0.25 -0.4375 0
0.125 -0.4375 0
0.1875 -0.4375 0
0.125 -0.375 0
0.1875 -0.375 0
0.1875 -0.4375 0
0.25 -0.4375 0
0.1875 -0.375 0
0.25 -0.375 0
0.375 -0.875 0
0.4375 -0.875 0
0.375 -0.8125 0
0.4375 -0.8125 0
0.4375 -0.875 0
0.5 -0.875 0
0.4375 -0.8125 0
0.5 -0.8125 0
0.375 -0.8125 0
0.4375 -0.8125 0
0.375 -0.75 0
0.4375 -0.75 0
0.4375 -0.8125 0
0.5 -0.8125 0
0.4375 -0.75 0
0.5 -0.75 0
-0.75 0 0
-0.6875 0 0
-0.75 0.0625 0
-0.6875 0.0625 0
-0.6875 0 0
-0.625 0 0
-0.6875 0.0625 0
-0.625 0.0625 0
-0.75 0.0625 0
-0.6875 0.0625 0
-0.75 0.125 0
-0.6875 0.125 0
-0.75 0.125 0
-0.6875 0.125 0
-0.75 0.1875 0
-0.6875 0.1875 0
-0.75 0.1875 0
-0.6875 0.1875 0
[...]
POINT_DATA 6588
SCALARS U double 1
LOOKUP_TABLE default
0 0 0 9.14413e-05 0 0 9.14413e-05 0.000188827 0 9.14413e-05 0 0.000195803 0 0 0.000188827 0.000294846 0.000188827 0.000294846 0.000374499 0.000516404 0.000390182 0.000552384 0.000569856 0.000797388 0.000432925 0.000455049 0.00057868 0.000602731 0.00057868 0.000602731 0.00064691 0.000663226 0.000627974 0.000630535 0.000572979 0.00052184 0 9.79016e-05 0 0.000139294 9.79016e-05 0.000195803 0.000139294 0.000271947 0 0.000139294 0 0.000200683 0.000139294 0.000271947 0.000200683 0.000390182 0 0.000200683 0 0.000294807 0.000200683 0.000390182 0.000294807 0.000569856 0 0.000294807 0 0.000431222 0.000294807 0.000569856 0.000431222 0.000827033 0.000294846 0.000343409 0.000405625 0.000476724 0.000405625 0.000476724 0.000516404 0.000567335 0.000476724 0.000533229 0.000567335 0.000614198 0.000516404 0.000567335 0.000605343 0.000622335 0.000567335 0.000614198 0.000622335 0.000627974 0.000605343 0.000622335 0.000713252 0.00065083 0.000622335 0.000627974 0.00065083 0.000572979 0 0 0.000206046 0.000230102 0 0 0.000230102 0.000244251 0.000230102 0.000244251 0.000432925 0.000455049 0.000374499 0.000445451 0.000492599 0.000564649 0.000445451 0.000516404 0.000564649 0.000605343 0.000492599 0.000564649 0.00067102 0.000728528 0.000564649 0.000605343 0.000728528 0.000713252 0 0 0.000244251 0.000244376 0 0 0.000244376 0.000226088 0.000244251 0.000244376 0.000455049 0.000453442 0.000455049 0.000453442 0.000602731 0.000610599 0 0 0.000226088 0.000190655 0 0 0.000190655 0.000138216 0.000713252 0.00065083 0.00087483 0.000669998 0 0.000807286 0 0.000983347 0 0.000983347 0 0.00107901 0 0 0.000138216 7.30205e-05 0 0 7.30205e-05 0 0 0.000431222 0 0.000608318 0.000431222 0.000827033 0.000608318 0.00116802 0 0.000608318 0 0.000807286 0.000608318 0.00116802 0.000807286 0.00155016 0 0.00103941 0 0.000831798 9.14413e-05 0.000140134 0.000143622 0.000210945 0.000140134 0.000188827 0.000210945 0.000281663 0.000143622 0.000210945 0.000195803 0.000290783 0.000210945 0.000281663 0.000290783 0.000374499 0 0.000831798 0 0.000463503 0 0.000463503 0 0 0 0 0.000147423 0.000178504 0 0 0.000178504 0.000206046 0.000147423 0.000178504 0.000294846 0.000343409 0.000178504 0.000206046 0.000343409 0.000392041 0.00235395 0.00248204 0.00262973 0.00277131 0.00239729 0.00262973 0.00261539 0.00287226 0.00262973 0.00277131 0.00287226 0.00302639 0.0022821 0.00261539 0.00242751 0.00278379 0.00200676 0.00242751 0.00207164 0.00250849 0.00242751 0.00278379 0.00250849 0.00287682 0.00261539 0.00287226 0.00278379 0.00305336 0.00151391 0.00122484 0.00174135 0.00139775 0.00122484 0.00086387 0.00139775 0.000980296 0.00139775 0.000980296 0.00158141 0.00110801 0.00103941 0.00152948 0.000935603 0.00140539 0.00152948 0.00199756 0.00140539 0.00183343 0.000935603 0.00140539 0.000831798 0.00121747 0.00140539 0.00183343 0.00121747 0.00159314 0.000831798 0.00121747 0.00064765 0.000973152 0.00121747 0.00159314 0.000973152 0.00127278 0.00064765 0.000973152 0.000463503 0.000678053 0.000973152 0.00127278 0.000678053 0.000886972 0.000941205 0.000972711 0.0011244 0.00115352 0.000972711 0.000972176 0.00115352 0.00114226 0.00115352 0.00114226 0.00137026 0.00134662 0.000972176 0.000940354 0.00114226 0.00108766 0.000940354 0.00087483 0.00108766 0.00098916 0.00114226 0.00108766 0.00134662 0.0012686 0.00108766 0.00098916 0.0012686 0.0011338 0.00126756 0.00134236 0.00150865 0.00159423 0.00137449 0.00150865 0.00161879 0.0017768 0.00150865 0.00159423 0.0017768 0.00187567 0.000728528 0.00072089 0.000833657 0.000822175 0.00072089 0.000713252 0.000822175 0.000794041 0.000833657 0.000822175 0.000972176 0.000940354 0.000822175 0.000794041 0.000940354 0.00087483 0.00161879 0.0017768 0.00187983 0.00206181 0.00187983 0.00206181 0.00214511 0.00235395 0.00134236 0.00137026 0.00159423 0.00162133 0.00137026 0.00134662 0.00162133 0.00158476 0.00159423 0.00162133 0.00187567 0.00190394 0.00162133 0.00158476 0.00190394 0.00185592 0.000392041 0.000412275 0.000468337 0.000490235 0.000412275 0.000432925 0.000490235 0.000505802 0.000468337 0.000490235 0.000533229 0.000555427 0.000490235 0.000505802 0.000555427 0.00057868 0.00217525 0.00220647 0.00248204 0.0025171 0.00087483 0.000772414 0.00098916 0.000851225 0.000772414 0.000669998 0.000851225 0.000679328 0.00098916 0.000851225 0.0011338 0.000946976 0.000851225 0.000679328 0.000946976 0.000709277 0.000669998 0.000545132 0.000679328 0.000484641 0.000679328 0.000484641 0.000709277 0.000420684 0.000797388 0.000883078 0.000959076 0.00105797 0.000883078 0.000941205 0.00105797 0.0011244 0.000959076 0.00105797 0.00115285 0.00126756 0.00105797 0.0011244 0.00126756 0.00134236 0.000552384 0.000621333 0.000674886 0.000738102 0.000621333 0.00067102 0.000738102 0.000790769 0.000674886 0.000738102 0.000797388 0.000883078 0.000738102 0.000790769 0.000883078 0.000941205 0.000569856 0.000683622 0.000698444 0.000834942 0.000683622 0.000797388 0.000834942 0.000959076 0.000698444 0.000834942 0.000827033 0.00100569 0.000834942 0.000959076 0.00100569 0.00115285 0.000983347 0.00144606 0.00103118 0.00153844 0.00144606 0.00188565 0.00153844 0.00200676 0.00103118 0.00153844 0.00107901 0.00158959 0.00067102 0.000699774 0.000790769 0.000824379 0.000699774 0.000728528 0.000824379 0.000833657 0.000533229 0.000555427 0.000573713 0.000598671 0.000555427 0.00057868 0.000598671 0.000612795 0.000573713 0.000598671 0.000614198 0.000629587 0.000598671 0.000612795 0.000629587 0.00064691 0.000709277 0.000420684 0.000768606 0.000409642 0.000768606 0.000409642 0.00086387 0.00044822 0.000409642 0 0.00044822 0 0.000614198 0.000629587 0.000621086 0.000637566 0.000629587 0.00064691 0.000637566 0.000647048 0.000621086 0.000637566 0.000627974 0.000629255 0.000637566 0.000647048 0.000629255 0.000630535 0.00172796 0.00209057 0.00188565 0.0022821 0.00209057 0.00239729 0.0022821 0.00261539 0.000205025 0.000167438 0 0 0.00044822 0 0.000505411 0 0.000505411 0 0.00057044 0 0 0.000539507 0 0.000542378 0.000539507 0.00107901 0.000542378 0.00107619 0 0.000542378 0 0.000519705 0.000542378 0.00107619 0.000519705 0.00103941 0.00158959 0.00207164 0.00159011 0.00207333 0.000343409 0.000367725 0.000410067 0.000441615 0.000367725 0.000392041 0.000441615 0.000468337 0.000410067 0.000441615 0.000476724 0.000504977 0.000441615 0.000468337 0.000504977 0.000533229 0.000206046 0.000218074 0.000299044 0.000318413 0.000218074 0.000230102 0.000318413 0.000331513 0.000299044 0.000318413 0.000392041 0.000412275 0.000318413 0.000331513 0.000412275 0.000432925 0.000463503 0.000678053 0.000231751 0.000348539 0.000678053 0.000886972 0.000348539 0.000455666 0.000231751 0.000348539 0 0 0.000348539 0.000455666 0 0 0.00064691 0.000655068 0.000647048 0.000654164 0.000655068 0.000663226 0.000654164 0.000657218 0.000647048 0.000654164 0.000630535 0.000626324 0.000654164 0.000657218 0.000626324 0.00062653 0.000244376 0.000235232 0.000348909 0.000342224 0.000235232 0.000226088 0.000342224 0.000327097 0.000348909 0.000342224 0.000453442 0.000438077 0.000342224 0.000327097 0.000438077 0.000418176 0.000827033 0.00100569 0.000997526 0.00119942 0.00100569 0.00115285 0.00119942 0.00137449 0.000997526 0.00119942 0.00116802 0.00141346 0.00116802 0.00141346 0.00135909 0.00164194 0.00135909 0.00164194 0.00155016 0.00187217 0.00164194 0.00187983 0.00187217 0.00214511 0.000630535 0.000626324 0.000576187 0.000576975 0.000626324 0.00062653 0.000576975 0.000572447 0.000576187 0.000576975 0.00052184 0.000503962 0.000576975 0.000572447 0.000503962 0.00049504 0.000226088 0.000208372 0.000327097 0.000303424 0.000208372 0.000190655 0.000303424 0.000274389 0.000327097 0.000303424 0.000418176 0.000389839 0.000303424 0.000274389 0.000389839 0.0003532 0.000395311 0.000448799 0.000466995 0.00052539 0.000448799 0.000492599 0.00052539 0.000581809 0.000466995 0.00052539 0.000552384 0.000621333 0.00052539 0.000581809 0.000621333 0.00067102 0.000195803 0.000243293 0.000233875 0.000286732 0.000243293 0.000290783 0.000286732 0.0003387 0.000233875 0.000286732 0.000271947 0.000336475 0.000286732 0.0003387 0.000336475 0.000395311 0.000290783 0.000332641 0.0003387 0.00038676 0.000332641 0.000374499 0.00038676 0.000433549 0.0003387 0.00038676 0.000395311 0.000448799 0.00038676 0.000433549 0.000448799 0.000492599 0.000271947 0.000336475 0.000331064 0.00039908 0.000336475 0.000395311 0.00039908 0.000466995 0.000331064 0.00039908 0.000390182 0.000471283 0.00039908 0.000466995 0.000471283 0.000552384 0.000572979 0.00054741 0.000518105 0.000466143 0.00054741 0.00052184 0.000466143 0.000431577 0.000518105 0.000466143 0.000435162 0.000358196 0.000638077 0.000638048 0.000994303 0.00117319 0.000638048 0.000617565 0.00117319 0.00125409 0.000994303 0.00117319 0.00185236 0.00265065 0.00117319 0.00125409 0.00265065 0.00291428 0.000617565 0.000575385 0.00125409 0.00123154 0.000575385 0.000512831 0.00123154 0.0011711 0.00125409 0.00123154 0.00291428 0.00292213 0.00123154 0.0011711 0.00292213 0.00287119 0.000138216 0.000105618 0.0001983 0.000152153 0.000105618 7.30205e-05 0.000152153 0.00010245 0.0001983 0.000152153 0.000255335 0.000196305 0.000152153 0.00010245 0.000196305 0.000132264 7.30205e-05 3.65102e-05 0.00010245 5.11076e-05 3.65102e-05 0 5.11076e-05 0 0.00010245 5.11076e-05 0.000132264 6.5002e-05 5.11076e-05 0 6.5002e-05 0 0.000132264 6.5002e-05 0.000183037 9.73346e-05 6.5002e-05 0 9.73346e-05 0 0.000183037 9.73346e-05 0.000310173 0.000166805 9.73346e-05 0 0.000166805 0 0.000512831 0.000426102 0.0011711 0.00106771 0.000426102 0.000310173 0.00106771 0.000898028 0.0011711 0.00106771 0.00287119 0.00274603 0.00106771 0.000898028 0.00274603 0.00251461 0.000310173 0.000166805 0.000898028 0.00054336 0.000166805 0 0.00054336 0 0.000898028 0.00054336 0.00251461 0.00178724 0.00054336 0 0.00178724 0 0.00172579 0.00151391 0.00199211 0.00174135 0.00214653 0.00199211 0.00244706 0.00226593 0.000737339 0.00103982 0.000765766 0.00124867 0.00103982 0.00185236 0.00124867 0.00268182 0.000765766 0.00124867 0.000763044 0.00135004 0.00124867 0.00268182 0.00135004 0.00296829 0.000602731 0.000606665 0.000632979 0.000650607 0.000606665 0.000610599 0.000650607 0.000691572 0.000632979 0.000650607 0.000663226 0.000679132 0.000763044 0.00135004 0.000720678 0.00133253 0.00135004 0.00296829 0.00133253 0.00298526 0.000720678 0.00133253 0.000649832 0.00126859 0.00133253 0.00298526 0.00126859 0.00293581 0.00065083 0.000611904 0.000660414 0.000585903 0.000611904 0.000572979 0.000585903 0.000518105 0.000660414 0.000585903 0.000669998 0.000545132 0.000585903 0.000518105 0.000545132 0.000435162 0.000649832 0.00126859 0.000538978 0.00115022 0.00126859 0.00293581 0.00115022 0.00280159 0.000538978 0.00115022 0.000389468 0.000960663 0.00115022 0.00280159 0.000960663 0.002556 0.000453442 0.000438077 0.000532021 0.000525867 0.000438077 0.000418176 0.000525867 0.000513244 0.000532021 0.000525867 0.000610599 0.000634883 0.000190655 0.000164436 0.000274389 0.000239729 0.000164436 0.000138216 0.000239729 0.0001983 0.000274389 0.000239729 0.0003532 0.000307292 0.000239729 0.0001983 0.000307292 0.000255335 0.000389468 0.000960663 0.000207344 0.000576731 0.000960663 0.002556 0.000576731 0.00180866 0.000207344 0.000576731 0 0 0.000576731 0.00180866 0 0 0.00185236 0.00265065 0.00268182 0.00410377 0.00265065 0.00291428 0.00410377 0.00455411 0.00268182 0.00410377 0.00296829 0.00457777 0.00410377 0.00455411 0.00457777 0.00513315 0.000807286 0.00117872 0.000895317 0.00132615 0.00117872 0.00155016 0.00132615 0.00172796 0.000895317 0.00132615 0.000983347 0.00144606 0.00132615 0.00172796 0.00144606 0.00188565 0.00291428 0.00292213 0.00455411 0.00459545 0.00292213 0.00287119 0.00459545 0.00455571 0.00455411 0.00459545 0.00513315 0.00519981 0.00459545 0.00455571 0.00519981 0.00517033 0.000313827 0.00028894 0.000167438 0.000150036 0.00028894 0.000275889 0.000150036 0.000140194 0.000167438 0.000150036 0 0 0.000150036 0.000140194 0 0 0.00158141 0.00110801 0.00176435 0.0012342 0.00176435 0.0012342 0.00192748 0.00134812 0.00057044 0 0.000635163 0 0.0012342 0.000635163 0.00134812 0.000693338 0.000635163 0 0.000693338 0 0.00192748 0.00134812 0.00205294 0.00143705 0.00205294 0.00143705 0.00212658 0.00148859 0.000693338 0 0.000739317 0 0.000739317 0 0.000765486 0 0.0025171 0.00244706 0.00281012 0.00273026 0.000170132 0 0 0 0.00296829 0.00457777 0.00298526 0.00463077 0.00457777 0.00513315 0.00463077 0.00521295 0.00298526 0.00463077 0.00293581 0.00459624 0.00463077 0.00521295 0.00459624 0.00519123 0.00052184 0.000503962 0.000431577 0.000408328 0.000503962 0.00049504 0.000408328 0.00039512 0.000431577 0.000408328 0.000313827 0.00028894 0.000408328 0.00039512 0.00028894 0.000275889 0.000140194 0.000153668 0 0 0.00207164 0.00250849 0.00207333 0.00251002 0.00250849 0.00287682 0.00251002 0.0028776 0.00207333 0.00251002 0.00199756 0.00241408 0.00513315 0.00519981 0.00521295 0.00530017 0.00519981 0.00517033 0.00530017 0.00527745 0.00521295 0.00530017 0.00519123 0.00528599 0.00530017 0.00527745 0.00528599 0.00527911 0.00287119 0.00274603 0.00455571 0.00440901 0.00274603 0.00251461 0.00440901 0.00412046 0.00455571 0.00440901 0.00517033 0.00502691 0.00440901 0.00412046 0.00502691 0.00468961 0.00251461 0.00178724 0.00412046 0.00302545 0.00178724 0 0.00302545 0 0.00412046 0.00302545 0.00468961 0.00338907 0.00302545 0 0.00338907 0 0.00468961 0.00338907 0.00478606 0.00344118 0.00338907 0 0.00344118 0 0.00478606 0.00344118 0.00479299 0.00345562 0.00344118 0 0.00345562 0 0.00293581 0.00459624 0.00280159 0.00444539 0.00459624 0.00519123 0.00444539 0.00504778 0.00280159 0.00444539 0.002556 0.00414838 0.00444539 0.00504778 0.00414838 0.00470666 0.00177153 0.00194637 0.0012369 0.00136034 0.00194637 0.00205682 0.00136034 0.00143801 0.002556 0.00414838 0.00180866 0.00304008 0.00414838 0.00470666 0.00304008 0.00339824 0.00180866 0.00304008 0 0 0.00304008 0.00339824 0 0 0.00470666 0.00479565 0.00339824 0.00344653 0.00479565 0.00479727 0.00344653 0.00345813 0.00339824 0.00344653 0 0 0.00344653 0.00345813 0 0 0.00107582 0.0012369 0.000552017 0.000634839 0.000455666 0.000552017 0 0 0.000552017 0.000634839 0 0 0.00527911 0.00514212 0.00514554 0.00501717 0.00514212 0.00479299 0.00501717 0.00469655 0.00514554 0.00501717 0.00479727 0.00469812 0.00501717 0.00469655 0.00469812 0.00445072 0.00479299 0.00345562 0.00469655 0.00340217 0.00345562 0 0.00340217 0 0.00469655 0.00340217 0.00445072 0.00326244 0.00340217 0 0.00326244 0 0.00479727 0.00469812 0.00345813 0.00340324 0.00469812 0.00445072 0.00340324 0.00326264 0.00345813 0.00340324 0 0 0.00340324 0.00326264 0 0 0.00445072 0.00326244 0.00326264 0.0025011 0.00326244 0 0.0025011 0 0.00326264 0.0025011 0 0 0.0025011 0 0 0 0.000634839 0.000699377 0 0 0.000699377 0.000738779 0 0 0.000765486 0 0.000765194 0 0.000738779 0.0007482 0 0 0.00256765 0.00232925 0.00247101 0.0022378 0.00247101 0.0022378 0.00235724 0.00213761 0.00176371 0.00144683 0.00168838 0.00138947 0.00168838 0.00138947 0.00161513 0.00132574 0.00235724 0.00213761 0.00221246 0.0020058 0.00221246 0.0020058 0.00205315 0.00186556 0.00161513 0.00132574 0.00151469 0.00124282 0.00151469 0.00124282 0.00141449 0.00116132 0.00254505 0.0024558 0.00230566 0.00222096 0.0024558 0.00234849 0.00222096 0.00212681 0.00234849 0.00220878 0.00212681 0.00199975 0.00220878 0.00205315 0.00199975 0.00186305 0.00174163 0.0016724 0.00142802 0.00137551 0.0016724 0.00160385 0.00137551 0.00131567 0.00160385 0.0015072 0.00131567 0.0012359 0.0015072 0.00140988 0.0012359 0.00115681 0.00214511 0.00224953 0.00227127 0.00238418 0.00224953 0.00235395 0.00238418 0.00249184 0.00227127 0.00238418 0.00239729 0.00251351 0.00238418 0.00249184 0.00251351 0.00262973 0.00188565 0.00208388 0.00194621 0.00215401 0.00208388 0.0022821 0.00215401 0.00235481 0.00194621 0.00215401 0.00200676 0.00221714 0.00215401 0.00235481 0.00221714 0.00242751 0.00220082 0.00199656 0.00230707 0.00209189 0.00199656 0.00176435 0.00209189 0.00184591 0.00230707 0.00209189 0.0024037 0.00217951 0.00209189 0.00184591 0.00217951 0.00192748 0.0011244 0.00113896 0.00123338 0.00124822 0.00113896 0.00115352 0.00124822 0.00126189 0.00123338 0.00124822 0.00134236 0.00135631 0.00124822 0.00126189 0.00135631 0.00137026 0.00115285 0.00121021 0.00126367 0.00132662 0.00121021 0.00126756 0.00132662 0.00138811 0.00126367 0.00132662 0.00137449 0.00144157 0.00132662 0.00138811 0.00144157 0.00150865 0.0017768 0.00182624 0.00191931 0.00197494 0.00182624 0.00187567 0.00197494 0.00202408 0.00191931 0.00197494 0.00206181 0.00212304 0.00197494 0.00202408 0.00212304 0.00217525 0.00277131 0.00280255 0.00289885 0.0029396 0.00280255 0.00281012 0.0029396 0.00294196 0.00289885 0.0029396 0.00302639 0.00306176 0.0029396 0.00294196 0.00306176 0.00306732 0.00281012 0.00277019 0.00294196 0.00291527 0.00277019 0.00273026 0.00291527 0.00285799 0.00294196 0.00291527 0.00306732 0.00304095 0.00291527 0.00285799 0.00304095 0.00298153 0.00206181 0.00212304 0.00220788 0.00227277 0.00212304 0.00217525 0.00227277 0.00232865 0.00220788 0.00227277 0.00235395 0.002418 0.00227277 0.00232865 0.002418 0.00248204 0.00187567 0.00188981 0.00202408 0.00203993 0.00188981 0.00190394 0.00203993 0.00205382 0.00202408 0.00203993 0.00217525 0.00219086 0.00203993 0.00205382 0.00219086 0.00220647 0.00190394 0.00187993 0.00205382 0.00203024 0.00187993 0.00185592 0.00203024 0.00199986 0.00205382 0.00203024 0.00220647 0.00218158 0.00203024 0.00199986 0.00218158 0.00214653 0.00273026 0.00264233 0.00285799 0.00277027 0.00264233 0.00252584 0.00277027 0.00264812 0.00285799 0.00277027 0.00298153 0.0028878 0.00277027 0.00264812 0.0028878 0.00275948 0.00252584 0.00237823 0.00264812 0.00249294 0.00237823 0.00220082 0.00249294 0.00230707 0.00264812 0.00249294 0.00275948 0.00259838 0.00249294 0.00230707 0.00259838 0.0024037 0.00302639 0.00306176 0.00313138 0.00317039 0.00306176 0.00306732 0.00317039 0.00317551 0.00313138 0.00317039 0.00321814 0.0032601 0.00317039 0.00317551 0.0032601 0.00326841 0.00287226 0.00294932 0.00296281 0.00306467 0.00294932 0.00302639 0.00306467 0.00313138 0.00296281 0.00306467 0.00305336 0.00315163 0.00306467 0.00313138 0.00315163 0.00321814 0.00278379 0.00291857 0.0028303 0.00299008 0.00291857 0.00305336 0.00299008 0.00311676 0.0028303 0.00299008 0.00287682 0.0030279 0.00299008 0.00311676 0.0030279 0.0031551 0.00251002 0.00269381 0.00246205 0.00266507 0.00269381 0.0028776 0.00266507 0.00283788 0.00246205 0.00266507 0.00241408 0.00260227 0.00266507 0.00283788 0.00260227 0.00277016 0.00287682 0.0030279 0.00287721 0.00304238 0.0030279 0.0031551 0.00304238 0.00317101 0.00287721 0.00304238 0.0028776 0.00303102 0.00304238 0.00317101 0.00303102 0.00316168 0.00205315 0.00186556 0.00186305 0.00168847 0.00168847 0.00149424 0.00149262 0.0013235 0.00220647 0.00218158 0.00236179 0.00233502 0.00218158 0.00214653 0.00233502 0.0022968 0.00236179 0.00233502 0.0025171 0.00248208 0.00233502 0.0022968 0.00248208 0.00244706 0.00059884 0.000296315 0.000543239 0.000268075 0.000296315 0 0.000268075 0 0.000543239 0.000268075 0.000480542 0.000236511 0.000268075 0 0.000236511 0 0.000545132 0.000490147 0.000514886 0.000442982 0.000490147 0.000435162 0.000442982 0.000373003 0.000514886 0.000442982 0.000484641 0.000392192 0.000442982 0.000373003 0.000392192 0.000303051 0.000480542 0.000236511 0.000411984 0.000201369 0.000236511 0 0.000201369 0 0.000411984 0.000201369 0.000340355 0.000166997 0.000201369 0 0.000166997 0 0.00241408 0.00260227 0.00232993 0.00251081 0.00260227 0.00277016 0.00251081 0.00267547 0.00232993 0.00251081 0.00221903 0.0023933 0.00251081 0.00267547 0.0023933 0.00255026 0.00059604 0.000541423 0.000294853 0.000267114 0.000541423 0.000479447 0.000267114 0.000235918 0.000294853 0.000267114 0 0 0.000267114 0.000235918 0 0 0.00305336 0.00315163 0.00311676 0.00321664 0.00315163 0.00321814 0.00321664 0.00328867 0.00321664 0.00328867 0.00325958 0.00333402 0.000479447 0.000411392 0.000235918 0.000201034 0.000411392 0.000340087 0.000201034 0.000166835 0.000235918 0.000201034 0 0 0.000201034 0.000166835 0 0 0.00221903 0.0023933 0.00208441 0.00224841 0.0023933 0.00255026 0.00224841 0.00239586 0.