# vtk DataFile Version 3.0
#This file was generated by the deal.II library on 2021/4/23 at 0:45:48
ASCII
DATASET UNSTRUCTURED_GRID

FIELD FieldData 2
CYCLE 1 1 int
225
TIME 1 1 double
0.45
POINTS 6900 double
-1 -1 0
-0.75 -1 0
-1 -0.75 0
-0.75 -0.75 0
-0.75 -1 0
-0.5 -1 0
-0.75 -0.75 0
-0.5 -0.75 0
-1 -0.75 0
-0.75 -0.75 0
-1 -0.5 0
-0.75 -0.5 0
-0.75 -0.75 0
-0.5 -0.75 0
-0.75 -0.5 0
-0.5 -0.5 0
-0.5 -1 0
-0.25 -1 0
-0.5 -0.75 0
-0.25 -0.75 0
-0.25 -1 0
0 -1 0
-0.25 -0.75 0
0 -0.75 0
-0.5 -0.75 0
-0.25 -0.75 0
-0.5 -0.5 0
-0.25 -0.5 0
-1 -0.5 0
-0.75 -0.5 0
-1 -0.25 0
-0.75 -0.25 0
-1 -0.25 0
-0.75 -0.25 0
-1 0 0
-0.75 0 0
-0.5 -0.5 0
-0.25 -0.5 0
-0.5 -0.25 0
-0.25 -0.25 0
-1 0 0
-0.75 0 0
-1 0.25 0
-0.75 0.25 0
-1 0.25 0
-0.75 0.25 0
-1 0.5 0
-0.75 0.5 0
-1 0.5 0
-0.75 0.5 0
-1 0.75 0
-0.75 0.75 0
-1 0.75 0
-0.75 0.75 0
-1 1 0
-0.75 1 0
-0.25 0.75 0
0 0.75 0
-0.25 1 0
0 1 0
-0.25 -0.75 0
-0.125 -0.75 0
-0.25 -0.625 0
-0.125 -0.625 0
-0.125 -0.75 0
0 -0.75 0
-0.125 -0.625 0
0 -0.625 0
-0.25 -0.625 0
-0.125 -0.625 0
-0.25 -0.5 0
-0.125 -0.5 0
-0.125 -0.625 0
0 -0.625 0
-0.125 -0.5 0
0 -0.5 0
-0.75 -0.25 0
-0.625 -0.25 0
-0.75 -0.125 0
-0.625 -0.125 0
-0.625 -0.25 0
-0.5 -0.25 0
-0.625 -0.125 0
-0.5 -0.125 0
-0.75 -0.125 0
-0.625 -0.125 0
-0.75 0 0
-0.625 0 0
-0.625 -0.125 0
-0.5 -0.125 0
-0.625 0 0
-0.5 0 0
0 -0.75 0
0.125 -0.75 0
0 -0.625 0
0.125 -0.625 0
0 -0.375 0
0.125 -0.375 0
0 -0.25 0
0.125 -0.25 0
-0.25 -0.5 0
-0.125 -0.5 0
-0.25 -0.375 0
-0.125 -0.375 0
-0.25 -0.375 0
-0.125 -0.375 0
-0.25 -0.25 0
-0.125 -0.25 0
0 -1 0
0.125 -1 0
0 -0.875 0
0.125 -0.875 0
0.125 -1 0
0.25 -1 0
0.125 -0.875 0
0.25 -0.875 0
0 -0.875 0
0.125 -0.875 0
0 -0.75 0
0.125 -0.75 0
0.125 -0.875 0
0.25 -0.875 0
0.125 -0.75 0
0.25 -0.75 0
-0.75 -0.5 0
-0.625 -0.5 0
-0.75 -0.375 0
-0.625 -0.375 0
-0.625 -0.5 0
-0.5 -0.5 0
-0.625 -0.375 0
-0.5 -0.375 0
-0.75 -0.375 0
-0.625 -0.375 0
-0.75 -0.25 0
-0.625 -0.25 0
-0.625 -0.375 0
-0.5 -0.375 0
-0.625 -0.25 0
-0.5 -0.25 0
-0.5 -0.25 0
-0.375 -0.25 0
-0.5 -0.125 0
-0.375 -0.125 0
-0.375 -0.25 0
-0.25 -0.25 0
-0.375 -0.125 0
-0.25 -0.125 0
-0.5 -0.125 0
-0.375 -0.125 0
-0.5 0 0
-0.375 0 0
-0.375 -0.125 0
-0.25 -0.125 0
-0.375 0 0
-0.25 0 0
-0.75 0 0
-0.625 0 0
-0.75 0.125 0
-0.625 0.125 0
-0.75 0.125 0
-0.625 0.125 0
-0.75 0.25 0
-0.625 0.25 0
-0.5 0 0
-0.375 0 0
-0.5 0.125 0
-0.375 0.125 0
-0.375 0 0
-0.25 0 0
-0.375 0.125 0
-0.25 0.125 0
-0.5 0.125 0
-0.375 0.125 0
-0.5 0.25 0
-0.375 0.25 0
-0.375 0.125 0
-0.25 0.125 0
-0.375 0.25 0
-0.25 0.25 0
0.25 -1 0
0.375 -1 0
0.25 -0.875 0
0.375 -0.875 0
0.375 -1 0
0.5 -1 0
0.375 -0.875 0
0.5 -0.875 0
0.25 -0.875 0
0.375 -0.875 0
0.25 -0.75 0
0.375 -0.75 0
0.625 -1 0
0.75 -1 0
0.625 -0.875 0
0.75 -0.875 0
-0.25 -0.25 0
-0.125 -0.25 0
-0.25 -0.125 0
-0.125 -0.125 0
-0.25 -0.125 0
-0.125 -0.125 0
-0.25 0 0
-0.125 0 0
0.875 -1 0
1 -1 0
0.875 -0.875 0
1 -0.875 0
-0.75 0.25 0
-0.625 0.25 0
-0.75 0.375 0
-0.625 0.375 0
-0.625 0.25 0
-0.5 0.25 0
-0.625 0.375 0
-0.5 0.375 0
-0.75 0.375 0
-0.625 0.375 0
-0.75 0.5 0
-0.625 0.5 0
-0.25 0.125 0
-0.125 0.125 0
-0.25 0.25 0
-0.125 0.25 0
-0.125 0.125 0
0 0.125 0
-0.125 0.25 0
0 0.25 0
0 -0.25 0
0.125 -0.25 0
0 -0.125 0
0.125 -0.125 0
-0.25 0.25 0
-0.125 0.25 0
-0.25 0.375 0
-0.125 0.375 0
-0.125 0.25 0
0 0.25 0
-0.125 0.375 0
0 0.375 0
-0.125 0.375 0
0 0.375 0
-0.125 0.5 0
0 0.5 0
-0.5 0.25 0
-0.375 0.25 0
-0.5 0.375 0
-0.375 0.375 0
-0.375 0.25 0
-0.25 0.25 0
-0.375 0.375 0
-0.25 0.375 0
-0.75 0.5 0
-0.625 0.5 0
-0.75 0.625 0
-0.625 0.625 0
-0.75 0.625 0
-0.625 0.625 0
-0.75 0.75 0
-0.625 0.75 0
-0.75 0.75 0
-0.625 0.75 0
-0.75 0.875 0
-0.625 0.875 0
-0.75 0.875 0
-0.625 0.875 0
-0.75 1 0
-0.625 1 0
-0.625 0.875 0
-0.5 0.875 0
-0.625 1 0
-0.5 1 0
-0.125 0.5 0
0 0.5 0
-0.125 0.625 0
0 0.625 0
-0.25 0.625 0
-0.125 0.625 0
-0.25 0.75 0
-0.125 0.75 0
-0.125 0.625 0
0 0.625 0
-0.125 0.75 0
0 0.75 0
-0.375 0.75 0
-0.25 0.75 0
-0.375 0.875 0
-0.25 0.875 0
-0.5 0.875 0
-0.375 0.875 0
-0.5 1 0
-0.375 1 0
-0.375 0.875 0
-0.25 0.875 0
-0.375 1 0
-0.25 1 0
0.1875 -0.5 0
0.25 -0.5 0
0.1875 -0.4375 0
0.25 -0.4375 0
0.125 -0.4375 0
0.1875 -0.4375 0
0.125 -0.375 0
0.1875 -0.375 0
0.1875 -0.4375 0
0.25 -0.4375 0
0.1875 -0.375 0
0.25 -0.375 0
0.125 -0.375 0
0.1875 -0.375 0
0.125 -0.3125 0
0.1875 -0.3125 0
0.1875 -0.375 0
0.25 -0.375 0
0.1875 -0.3125 0
0.25 -0.3125 0
0.125 -0.3125 0
0.1875 -0.3125 0
0.125 -0.25 0
0.1875 -0.25 0
0.1875 -0.3125 0
0.25 -0.3125 0
0.1875 -0.25 0
0.25 -0.25 0
0.125 -0.75 0
0.1875 -0.75 0
0.125 -0.6875 0
0.1875 -0.6875 0
0.1875 -0.75 0
0.25 -0.75 0
0.1875 -0.6875 0
0.25 -0.6875 0
0.125 -0.6875 0
0.1875 -0.6875 0
0.125 -0.625 0
0.1875 -0.625 0
0.1875 -0.6875 0
0.25 -0.6875 0
0.1875 -0.625 0
0.25 -0.625 0
0.5 -0.8125 0
0.5625 -0.8125 0
0.5 -0.75 0
0.5625 -0.75 0
0.5625 -0.8125 0
0.625 -0.8125 0
0.5625 -0.75 0
0.625 -0.75 0
0.625 -0.875 0
0.6875 -0.875 0
0.625 -0.8125 0
0.6875 -0.8125 0
0.6875 -0.875 0
0.75 -0.875 0
0.6875 -0.8125 0
0.75 -0.8125 0
0.625 -0.8125 0
0.6875 -0.8125 0
0.625 -0.75 0
0.6875 -0.75 0
0.6875 -0.8125 0
0.75 -0.8125 0
0.6875 -0.75 0
0.75 -0.75 0
0.75 -0.875 0
0.8125 -0.875 0
0.75 -0.8125 0
0.8125 -0.8125 0
0.75 -0.8125 0
0.8125 -0.8125 0
0.75 -0.75 0
0.8125 -0.75 0
0.8125 -0.8125 0
0.875 -0.8125 0
0.8125 -0.75 0
0.875 -0.75 0
0.125 -0.25 0
0.1875 -0.25 0
0.125 -0.1875 0
0.1875 -0.1875 0
0.1875 -0.25 0
0.25 -0.25 0
0.1875 -0.1875 0
0.25 -0.1875 0
0.125 -0.1875 0
0.1875 -0.1875 0
0.125 -0.125 0
0.1875 -0.125 0
0.1875 -0.1875 0
0.25 -0.1875 0
0.1875 -0.125 0
0.25 -0.125 0
0 -0.625 0
0.0625 -0.625 0
0 -0.5625 0
0.0625 -0.5625 0
0.0625 -0.625 0
0.125 -0.625 0
0.0625 -0.5625 0
0.125 -0.5625 0
0 -0.5625 0
0.0625 -0.5625 0
0 -0.5 0
0.0625 -0.5 0
0.0625 -0.5625 0
0.125 -0.5625 0
0.0625 -0.5 0
0.125 -0.5 0
0.125 -0.625 0
0.1875 -0.625 0
0.125 -0.5625 0
0.1875 -0.5625 0
0 -0.5 0
0.0625 -0.5 0
0 -0.4375 0
0.0625 -0.4375 0
0.0625 -0.5 0
0.125 -0.5 0
0.0625 -0.4375 0
0.125 -0.4375 0
0 -0.4375 0
0.0625 -0.4375 0
0 -0.375 0
0.0625 -0.375 0
0.0625 -0.4375 0
0.125 -0.4375 0
0.0625 -0.375 0
0.125 -0.375 0
-0.125 -0.5 0
-0.0625 -0.5 0
-0.125 -0.4375 0
-0.0625 -0.4375 0
-0.0625 -0.5 0
0 -0.5 0
-0.0625 -0.4375 0
0 -0.4375 0
-0.125 -0.4375 0
-0.0625 -0.4375 0
-0.125 -0.375 0
-0.0625 -0.375 0
-0.0625 -0.4375 0
0 -0.4375 0
-0.0625 -0.375 0
0 -0.375 0
-0.125 -0.375 0
-0.0625 -0.375 0
-0.125 -0.3125 0
-0.0625 -0.3125 0
-0.0625 -0.375 0
0 -0.375 0
-0.0625 -0.3125 0
0 -0.3125 0
-0.125 -0.3125 0
-0.0625 -0.3125 0
-0.125 -0.25 0
-0.0625 -0.25 0
-0.0625 -0.3125 0
0 -0.3125 0
-0.0625 -0.25 0
0 -0.25 0
-0.625 0 0
-0.5625 0 0
-0.625 0.0625 0
-0.5625 0.0625 0
-0.5625 0 0
-0.5 0 0
-0.5625 0.0625 0
-0.5 0.0625 0
-0.625 0.0625 0
-0.5625 0.0625 0
-0.625 0.125 0
-0.5625 0.125 0
-0.5625 0.0625 0
-0.5 0.0625 0
-0.5625 0.125 0
-0.5 0.125 0
-0.625 0.125 0
-0.5625 0.125 0
-0.625 0.1875 0
-0.5625 0.1875 0
-0.5625 0.125 0
-0.5 0.125 0
-0.5625 0.1875 0
-0.5 0.1875 0
-0.625 0.1875 0
-0.5625 0.1875 0
-0.625 0.25 0
-0.5625 0.25 0
-0.5625 0.1875 0
-0.5 0.1875 0
-0.5625 0.25 0
-0.5 0.25 0
-0.125 -0.25 0
-0.0625 -0.25 0
-0.125 -0.1875 0
-0.0625 -0.1875 0
-0.0625 -0.25 0
0 -0.25 0
-0.0625 -0.1875 0
0 -0.1875 0
-0.125 -0.1875 0
-0.0625 -0.1875 0
-0.125 -0.125 0
-0.0625 -0.125 0
-0.0625 -0.1875 0
0 -0.1875 0
-0.0625 -0.125 0
0 -0.125 0
0.375 -0.875 0
0.4375 -0.875 0
0.375 -0.8125 0
0.4375 -0.8125 0
0.4375 -0.875 0
0.5 -0.875 0
0.4375 -0.8125 0
0.5 -0.8125 0
0.375 -0.8125 0
0.4375 -0.8125 0
0.375 -0.75 0
0.4375 -0.75 0
0.25 -0.75 0
0.3125 -0.75 0
0.25 -0.6875 0
0.3125 -0.6875 0
0.3125 -0.75 0
0.375 -0.75 0
0.3125 -0.6875 0
0.375 -0.6875 0
0.25 -0.6875 0
0.3125 -0.6875 0
0.25 -0.625 0
0.3125 -0.625 0
0.3125 -0.6875 0
0.375 -0.6875 0
0.3125 -0.625 0
0.375 -0.625 0
0.5 -1 0
0.5625 -1 0
0.5 -0.9375 0
0.5625 -0.9375 0
0.5625 -1 0
0.625 -1 0
0.5625 -0.9375 0
0.625 -0.9375 0
0.5 -0.9375 0
0.5625 -0.9375 0
0.5 -0.875 0
0.5625 -0.875 0
0.5625 -0.9375 0
0.625 -0.9375 0
0.5625 -0.875 0
0.625 -0.875 0
-0.125 -0.125 0
-0.0625 -0.125 0
-0.125 -0.0625 0
-0.0625 -0.0625 0
-0.0625 -0.125 0
0 -0.125 0
-0.0625 -0.0625 0
0 -0.0625 0
-0.125 -0.0625 0
-0.0625 -0.0625 0
-0.125 0 0
-0.0625 0 0
-0.0625 -0.0625 0
0 -0.0625 0
-0.0625 0 0
0 0 0
0.75 -1 0
0.8125 -1 0
0.75 -0.9375 0
0.8125 -0.9375 0
0.8125 -1 0
0.875 -1 0
0.8125 -0.9375 0
0.875 -0.9375 0
0.75 -0.9375 0
0.8125 -0.9375 0
0.75 -0.875 0
0.8125 -0.875 0
0.8125 -0.9375 0
0.875 -0.9375 0
0.8125 -0.875 0
0.875 -0.875 0
0.875 -0.875 0
0.9375 -0.875 0
0.875 -0.8125 0
0.9375 -0.8125 0
0.9375 -0.875 0
1 -0.875 0
0.9375 -0.8125 0
1 -0.8125 0
0.9375 -0.8125 0
1 -0.8125 0
0.9375 -0.75 0
1 -0.75 0
-0.625 0.375 0
-0.5625 0.375 0
-0.625 0.4375 0
-0.5625 0.4375 0
-0.5625 0.375 0
-0.5 0.375 0
-0.5625 0.4375 0
-0.5 0.4375 0
-0.625 0.4375 0
-0.5625 0.4375 0
-0.625 0.5 0
-0.5625 0.5 0
-0.5625 0.4375 0
-0.5 0.4375 0
-0.5625 0.5 0
-0.5 0.5 0
-0.25 0 0
-0.1875 0 0
-0.25 0.0625 0
-0.1875 0.0625 0
-0.1875 0 0
-0.125 0 0
-0.1875 0.0625 0
-0.125 0.0625 0
-0.25 0.0625 0
-0.1875 0.0625 0
-0.25 0.125 0
-0.1875 0.125 0
-0.1875 0.0625 0
-0.125 0.0625 0
-0.1875 0.125 0
-0.125 0.125 0
-0.125 0 0
-0.0625 0 0
-0.125 0.0625 0
-0.0625 0.0625 0
-0.0625 0 0
0 0 0
-0.0625 0.0625 0
0 0.0625 0
-0.125 0.0625 0
-0.0625 0.0625 0
-0.125 0.125 0
-0.0625 0.125 0
-0.0625 0.0625 0
0 0.0625 0
-0.0625 0.125 0
0 0.125 0
0 -0.125 0
0.0625 -0.125 0
0 -0.0625 0
0.0625 -0.0625 0
0.0625 -0.125 0
0.125 -0.125 0
0.0625 -0.0625 0
0.125 -0.0625 0
0 -0.0625 0
0.0625 -0.0625 0
0 0 0
0.0625 0 0
0.0625 -0.0625 0
0.125 -0.0625 0
0.0625 0 0
0.125 0 0
0.125 -0.0625 0
0.1875 -0.0625 0
0.125 0 0
0.1875 0 0
0.1875 -0.0625 0
0.25 -0.0625 0
0.1875 0 0
0.25 0 0
-0.25 0.375 0
-0.1875 0.375 0
-0.25 0.4375 0
-0.1875 0.4375 0
-0.1875 0.375 0
-0.125 0.375 0
-0.1875 0.4375 0
-0.125 0.4375 0
-0.25 0.4375 0
-0.1875 0.4375 0
-0.25 0.5 0
-0.1875 0.5 0
-0.1875 0.4375 0
-0.125 0.4375 0
-0.1875 0.5 0
-0.125 0.5 0
-0.5 0.375 0
-0.4375 0.375 0
-0.5 0.4375 0
-0.4375 0.4375 0
-0.4375 0.375 0
-0.375 0.375 0
-0.4375 0.4375 0
-0.375 0.4375 0
-0.5 0.4375 0
-0.4375 0.4375 0
-0.5 0.5 0
-0.4375 0.5 0
[...]
POINT_DATA 6900
SCALARS U double 1
LOOKUP_TABLE default
0 0 0 9.79944e-05 0 0 9.79944e-05 0.000179932 0 9.79944e-05 0 0.000221738 9.79944e-05 0.000179932 0.000221738 0.000377389 0 0 0.000179932 0.000243884 0 0 0.000243884 0.000411584 0.000179932 0.000243884 0.000377389 0.000479902 0 0.000221738 0 0.000402261 0 0.000402261 0 0.000674481 0.000377389 0.000479902 0.000642657 0.000661553 0 0.000674481 0 0.000954803 0 0.000954803 0 0.00103038 0 0.00103038 0 0.000694917 0 0.000694917 0 0 0.000733885 0 0 0 0.000243884 0.000327734 0.000361893 0.000449571 0.000327734 0.000411584 0.000449571 0.000641003 0.000361893 0.000449571 0.000479902 0.000570746 0.000449571 0.000641003 0.000570746 0.000840568 0.000402261 0.000556753 0.000538371 0.000717311 0.000556753 0.000642657 0.000717311 0.000810795 0.000538371 0.000717311 0.000674481 0.000902608 0.000717311 0.000810795 0.000902608 0.00100819 0.000411584 0.000668355 0.000641003 0.00108919 0.000924526 0.00171748 0.000862939 0.00157605 0.000479902 0.000570746 0.000570727 0.000658773 0.000570727 0.000658773 0.000661553 0.000667781 0 0 0.000205792 0.000311273 0 0 0.000311273 0.000500653 0.000205792 0.000311273 0.000411584 0.000668355 0.000311273 0.000500653 0.000668355 0.00114228 0.000221738 0.000299563 0.000311999 0.000420693 0.000299563 0.000377389 0.000420693 0.000510023 0.000311999 0.000420693 0.000402261 0.000556753 0.000420693 0.000510023 0.000556753 0.000642657 0.000642657 0.000652105 0.000810795 0.000810188 0.000652105 0.000661553 0.000810188 0.00072679 0.000810795 0.000810188 0.00100819 0.000975594 0.000810188 0.00072679 0.000975594 0.000811379 0.000674481 0.000902608 0.000814642 0.00108827 0.000814642 0.00108827 0.000954803 0.00125503 0.00100819 0.000975594 0.00120659 0.00115259 0.000975594 0.000811379 0.00115259 0.000916461 0.00120659 0.00115259 0.00138999 0.00131184 0.00115259 0.000916461 0.00131184 0.00102631 0 0 0.000500653 0.00076956 0 0 0.00076956 0.00107452 0.000500653 0.00076956 0.00114228 0.00187479 0 0 0.00125186 0.00114637 0.000661553 0.000667781 0.00072679 0.000608201 0.00072679 0.000608201 0.000811379 0.000528169 0 0 0.000690734 0 0.000954803 0.00125503 0.000992593 0.00135517 0.00125503 0.00138999 0.00135517 0.00149536 0.000992593 0.00135517 0.00103038 0.00133517 0.000916461 0.000521865 0.00102631 0.000564364 0.000521865 0 0.000564364 0 0.000862939 0.00157605 0.000586403 0.000956152 0.00102631 0.000564364 0.00109592 0.000599936 0.000564364 0 0.000599936 0 0.000599936 0 0.000588163 0 0.00138999 0.00131184 0.00149536 0.00140891 0.00131184 0.00102631 0.00140891 0.00109592 0.00103038 0.00133517 0.00086265 0.00119179 0.00086265 0.00119179 0.000694917 0.00089424 0.000694917 0.00089424 0.000347458 0.000484763 0.000347458 0.000484763 0 0 0.000484763 0.000532131 0 0 0.000588163 0 0.000522076 0 0.000953354 0.000522076 0.000733885 0.000366943 0.000522076 0 0.000366943 0 0.000925715 0.000733885 0.000499778 0.000366943 0.000532131 0.000499778 0 0 0.000499778 0.000366943 0 0 0.00210605 0.00293631 0.00232807 0.00329599 0.00165857 0.00232807 0.00171748 0.00244515 0.00232807 0.00329599 0.00244515 0.00352126 0.00171748 0.00244515 0.00164676 0.0024279 0.00244515 0.00352126 0.0024279 0.00351556 0.00164676 0.0024279 0.00157605 0.00223713 0.0024279 0.00351556 0.00223713 0.00326719 0.000668355 0.000905316 0.000878774 0.00117162 0.000905316 0.00114228 0.00117162 0.00156647 0.000878774 0.00117162 0.00108919 0.00148618 0.00117162 0.00156647 0.00148618 0.00201537 0.00179793 0.00201238 0.00273337 0.00306594 0.00201238 0.00211155 0.00306594 0.00326708 0.00125186 0.00119912 0.00211155 0.0021021 0.00119912 0.00114637 0.0021021 0.0019497 0.00211155 0.0021021 0.00326708 0.00328983 0.0021021 0.0019497 0.00328983 0.00305811 0.00114637 0.000969277 0.0019497 0.0016429 0.0019497 0.0016429 0.00305811 0.00258391 0.0016429 0.00119002 0.00258391 0.00186916 0.00157605 0.00223713 0.0012661 0.00188279 0.00223713 0.00326719 0.00188279 0.00275601 0.0012661 0.00188279 0.000956152 0.00135759 0.00188279 0.00275601 0.00135759 0.00199573 0.000641003 0.000865098 0.000740785 0.000978121 0.000865098 0.00108919 0.000978121 0.00131693 0.000740785 0.000978121 0.000840568 0.00110548 0.000978121 0.00131693 0.00110548 0.00151779 0.00108919 0.00148618 0.00131693 0.00180922 0.000840568 0.00110548 0.000918993 0.00120625 0.00110548 0.00151779 0.00120625 0.00165857 0.000918993 0.00120625 0.000924526 0.001321 0.00120625 0.00165857 0.001321 0.00171748 0.000570746 0.000705657 0.00061476 0.000728913 0.000705657 0.000840568 0.000728913 0.000918993 0.00061476 0.000728913 0.000658773 0.000750204 0.000728913 0.000918993 0.000750204 0.000924526 0.000658773 0.000750204 0.000663277 0.000750456 0.000750204 0.000924526 0.000750456 0.000893733 0.000663277 0.000750456 0.000667781 0.000716715 0.000750456 0.000893733 0.000716715 0.000862939 0.000902608 0.000955396 0.000995437 0.00106889 0.000955396 0.00100819 0.00106889 0.00110739 0.000995437 0.00106889 0.00108827 0.00116756 0.00106889 0.00110739 0.00116756 0.00120659 0.00108827 0.00116756 0.00117165 0.00125926 0.00116756 0.00120659 0.00125926 0.00129829 0.00117165 0.00125926 0.00125503 0.00132251 0.00125926 0.00129829 0.00132251 0.00138999 0.000667781 0.000716715 0.000637991 0.000659981 0.000716715 0.000862939 0.000659981 0.000724671 0.000637991 0.000659981 0.000608201 0.000567878 0.000659981 0.000724671 0.000567878 0.000586403 0.00076956 0.00092204 0.00132217 0.00154562 0.00092204 0.00107452 0.00154562 0.00179793 0.00132217 0.00154562 0.00187479 0.00232551 0.00114228 0.00150853 0.00156647 0.00205774 0.00150853 0.00187479 0.00205774 0.00264961 0.00156647 0.00205774 0.00201537 0.0027075 0.00205774 0.00264961 0.0027075 0.00352692 0 0 0.00053726 0.000562354 0 0 0.000562354 0.00062593 0.00053726 0.000562354 0.00107452 0.0012108 0.000562354 0.00062593 0.0012108 0.00125186 0.000608201 0.000567878 0.000568185 0.000442165 0.000567878 0.000586403 0.000442165 0.000380846 0.000568185 0.000442165 0.000528169 0.00033799 0.000442165 0.000380846 0.00033799 0 0 0 0.000573187 0.000448343 0 0 0.000448343 0.000345367 0.000573187 0.000448343 0.00114637 0.000969277 0.000448343 0.000345367 0.000969277 0.000690734 0.000690734 0.000345367 0.00119002 0.000624647 0.000345367 0 0.000624647 0 0.000624647 0 0.000973703 0 0.00135517 0.00142527 0.00134517 0.00145161 0.00142527 0.00149536 0.00145161 0.0014903 0.00134517 0.00145161 0.00133517 0.00142467 0.00145161 0.0014903 0.00142467 0.00146821 0.000811379 0.000669774 0.00086392 0.00070131 0.000669774 0.000528169 0.00070131 0.000506556 0.00086392 0.00070131 0.000916461 0.000719163 0.00070131 0.000506556 0.000719163 0.000521865 0.000528169 0.00033799 0.000506556 0.000271961 0.00033799 0 0.000271961 0 0.000506556 0.000271961 0.000521865 0.000260932 0.000271961 0 0.000260932 0 0.000586403 0.000771278 0.000380846 0.000387559 0.000771278 0.000956152 0.000387559 0.000513553 0.000380846 0.000387559 0 0 0.000387559 0.000513553 0 0 0.000513553 0.000714677 0 0 0.000714677 0.00104112 0 0 0.00109592 0.00084793 0.00108915 0.000863603 0.00084793 0.000599936 0.000863603 0.00059405 0.00108915 0.000863603 0.00107192 0.000846166 0.000863603 0.00059405 0.000846166 0.000588163 0.00149536 0.00145214 0.0014903 0.00148013 0.00145214 0.00140891 0.00148013 0.00140208 0.0014903 0.00148013 0.00146821 0.0014536 0.00148013 0.00140208 0.0014536 0.00138078 0.00140891 0.00125242 0.00140208 0.00127618 0.00125242 0.00109592 0.00127618 0.00108915 0.00140208 0.00127618 0.00138078 0.0012524 0.00127618 0.00108915 0.0012524 0.00107192 0.00133517 0.00142467 0.00126348 0.00136739 0.00142467 0.00146821 0.00136739 0.00140597 0.00126348 0.00136739 0.00119179 0.0012653 0.00136739 0.00140597 0.0012653 0.0013035 0.00119179 0.0012653 0.00104301 0.00112988 0.0012653 0.0013035 0.00112988 0.00116134 0.00104301 0.00112988 0.00089424 0.000951986 0.00112988 0.00116134 0.000951986 0.000981161 0.00089424 0.000951986 0.000689502 0.000747336 0.000951986 0.000981161 0.000747336 0.000767088 0.000689502 0.000747336 0.000484763 0.000508447 0.000747336 0.000767088 0.000508447 0.000532131 0.00146821 0.0014536 0.00140597 0.0013929 0.0014536 0.00138078 0.0013929 0.00132209 0.00140597 0.0013929 0.0013035 0.00129054 0.0013929 0.00132209 0.00129054 0.00122564 0.00138078 0.0012524 0.00132209 0.00120012 0.0012524 0.00107192 0.00120012 0.00102427 0.00132209 0.00120012 0.00122564 0.00111125 0.00120012 0.00102427 0.00111125 0.000953354 0.0013035 0.00129054 0.00116134 0.00115083 0.00129054 0.00122564 0.00115083 0.00109142 0.00116134 0.00115083 0.000981161 0.000970193 0.00115083 0.00109142 0.000970193 0.000925715 0.00122564 0.00111125 0.00109142 0.000992409 0.00111125 0.000953354 0.000992409 0.000843619 0.00109142 0.000992409 0.000925715 0.0008298 0.000992409 0.000843619 0.0008298 0.000733885 0.00107192 0.000846166 0.00102427 0.000809578 0.000846166 0.000588163 0.000809578 0.00055512 0.00102427 0.000809578 0.000953354 0.000737715 0.000809578 0.00055512 0.000737715 0.000522076 0.000981161 0.000970193 0.000767088 0.000760034 0.000970193 0.000925715 0.000760034 0.000712747 0.000767088 0.000760034 0.000532131 0.000515955 0.000760034 0.000712747 0.000515955 0.000499778 0.000973703 0 0.00145191 0 0.00145191 0 0.0020529 0 0.0027075 0.00352692 0.00338981 0.00448304 0.00249952 0.00338981 0.00293631 0.00404708 0.00338981 0.00448304 0.00404708 0.00540298 0.00352692 0.00443815 0.00448304 0.00570201 0.00443815 0.00532581 0.00570201 0.0069198 0.00448304 0.00570201 0.00540298 0.00695377 0.00570201 0.0069198 0.00695377 0.00851713 0.00232551 0.00273337 0.00328668 0.00391245 0.00264961 0.00328668 0.00352692 0.00443815 0.00328668 0.00391245 0.00443815 0.00532581 0.00273337 0.00306594 0.00391245 0.00444566 0.00306594 0.00326708 0.00444566 0.0047494 0.00293631 0.00404708 0.00329599 0.0045866 0.00104112 0.00149837 0 0 0.00149837 0.00208654 0 0 0.00532581 0.00575755 0.00612281 0.00658216 0.00612281 0.00658216 0.0069198 0.00749731 0.00658216 0.00703469 0.00749731 0.00794501 0.0069198 0.00749731 0.00771847 0.00834162 0.00749731 0.00794501 0.00834162 0.00894701 0.00771847 0.00834162 0.00851713 0.00923673 0.00834162 0.00894701 0.00923673 0.00985039 0.0020529 0.00102645 0.00238974 0.00120212 0.00102645 0 0.00120212 0 0.00238974 0.00120212 0.00274485 0.00139317 0.00120212 0 0.00139317 0 0.00274485 0.00139317 0.00309891 0.00156803 0.00139317 0 0.00156803 0 0.00309891 0.00156803 0.00344945 0.00176177 0.00156803 0 0.00176177 0 0.00540298 0.00617837 0.00584934 0.00665043 0.00617837 0.00695377 0.00665043 0.00754542 0.00665043 0.00754542 0.00711461 0.0080038 0.00695377 0.00773545 0.00754542 0.00837127 0.00773545 0.00851713 0.00837127 0.00925106 0.00754542 0.00837127 0.0080038 0.00898849 0.00837127 0.00925106 0.00898849 0.00987579 0.00151779 0.00177477 0.00158818 0.00187798 0.00177477 0.00210605 0.00187798 0.00221706 0.00158818 0.00187798 0.00165857 0.00199332 0.00187798 0.00221706 0.00199332 0.00232807 0.00208654 0.00241808 0.00104327 0.00121642 0.00241808 0.00276881 0.00121642 0.00140526 0.00104327 0.00121642 0 0 0.00121642 0.00140526 0 0 0.00276881 0.00311895 0.00140526 0.00157819 0.00311895 0.00346615 0.00157819 0.00177021 0.00140526 0.00157819 0 0 0.00157819 0.00177021 0 0 0.00391245 0.00417906 0.00461913 0.00493854 0.00417906 0.00444566 0.00493854 0.00522901 0.00461913 0.00493854 0.00532581 0.00575755 0.00444566 0.00459753 0.00522901 0.00546784 0.00459753 0.0047494 0.00546784 0.00562581 0.00522901 0.00546784 0.00609502 0.00637954 0.00546784 0.00562581 0.00637954 0.00659085 0.00107452 0.00114266 0.00143623 0.00150086 0.00114266 0.0012108 0.00150086 0.00156541 0.00143623 0.00150086 0.00179793 0.00190516 0.00150086 0.00156541 0.00190516 0.00201238 0.0012108 0.00123133 0.00156541 0.00162361 0.00123133 0.00125186 0.00162361 0.00168171 0.00156541 0.00162361 0.00201238 0.00206197 0.00162361 0.00168171 0.00206197 0.00211155 0.00562581 0.00571965 0.00659085 0.00667979 0.00571965 0.0056963 0.00667979 0.00667854 0.0056963 0.00557475 0.00667854 0.00652901 0.00557475 0.00533767 0.00652901 0.00627325 0.000969277 0.000830006 0.00130609 0.00111305 0.000830006 0.000690734 0.00111305 0.000940375 0.00130609 0.00111305 0.0016429 0.00141646 0.00111305 0.000940375 0.00141646 0.00119002 0.00148618 0.00175078 0.0016477 0.00192835 0.00175078 0.00201537 0.00192835 0.00227222 0.0016477 0.00192835 0.00180922 0.00212338 0.00192835 0.00227222 0.00212338 0.00249952 0.00533767 0.00499259 0.00627325 0.00585757 0.00499259 0.00453383 0.00585757 0.00533805 0.00453383 0.00396498 0.00533805 0.00466112 0.00396498 0.00331389 0.00466112 0.00388757 0.0051754 0.00400345 0.00587255 0.00454622 0.00400345 0.00274485 0.00454622 0.00309891 0.00587255 0.00454622 0.00651198 0.00504836 0.00454622 0.00309891 0.00504836 0.00344945 0.00404708 0.00472503 0.00431684 0.00505358 0.00472503 0.00540298 0.00505358 0.00584934 0.00431684 0.00505358 0.0045866 0.00535931 0.00131693 0.00156307 0.00141736 0.00166419 0.00156307 0.00180922 0.00166419 0.00197711 0.00141736 0.00166419 0.00151779 0.00177477 0.00166419 0.00197711 0.00177477 0.00210605 0.00535931 0.00619778 0.00561141 0.00649092 0.00561141 0.00649092 0.00577737 0.00670649 0.00180922 0.00212338 0.00197711 0.00231073 0.00212338 0.00249952 0.00231073 0.00271791 0.00197711 0.00231073 0.00210605 0.00252118 0.00231073 0.00271791 0.00252118 0.00293631 0.00577737 0.00670649 0.00585707 0.00679723 0.00585707 0.00679723 0.00583358 0.00679422 0.00154562 0.00167178 0.00193556 0.00207671 0.00167178 0.00179793 0.00207671 0.00226565 0.00193556 0.00207671 0.00232551 0.00252944 0.00207671 0.00226565 0.00252944 0.00273337 0.00583358 0.00679422 0.00570796 0.006641 0.00570796 0.006641 0.00546405 0.00638011 0.00119002 0.000907331 0.00152959 0.00115753 0.000907331 0.000624647 0.00115753 0.000799175 0.00152959 0.00115753 0.00186916 0.00145508 0.00115753 0.000799175 0.00145508 0.000973703 0.00546405 0.00638011 0.00510986 0.00595649 0.00510986 0.00595649 0.00463939 0.00542751 0.000956152 0.00115687 0.000734853 0.00087774 0.00115687 0.00135759 0.00087774 0.00107397 0.000734853 0.00087774 0.000513553 0.000614115 0.00087774 0.00107397 0.000614115 0.000714677 0.00463939 0.00542751 0.00405668 0.00473869 0.00405668 0.00473869 0.00338988 0.00395194 0.0138719 0.0130599 0.0139233 0.0131071 0.0130599 0.0119171 0.0131071 0.0119749 0.0139233 0.0131071 0.0137696 0.0129707 0.0131071 0.0119749 0.0129707 0.0118409 0.0138829 0.0139278 0.0130707 0.0131144 0.0130707 0.0131144 0.0119287 0.0119829 0.0139278 0.013772 0.0131144 0.0129748 0.0131144 0.0129748 0.0119829 0.011846 0.00522104 0.00591066 0.00403861 0.0045757 0.00591066 0.00654351 0.0045757 0.00507278 0.00403861 0.0045757 0.00276881 0.00311895 0.0045757 0.00507278 0.00311895 0.00346615 0.0142363 0.0140134 0.014583 0.014407 0.014407 0.0138719 0.0144677 0.0139233 0.00851713 0.00923673 0.00925106 0.00999478 0.0144133 0.0144728 0.0138829 0.0139278 0.00985039 0.0103701 0.0107304 0.0113178 0.0103701 0.0107701 0.0113178 0.0117288 0.0107304 0.0113178 0.0115102 0.0121294 0.00987579 0.0107369 0.0104003 0.0113453 0.0107369 0.0115102 0.0113453 0.0121529 0.0104003 0.0113453 0.010809 0.0117592 0.0113453 0.0121529 0.0117592 0.0126352 0.0115102 0.0121294 0.0121529 0.0128502 0.0121294 0.0126021 0.0128502 0.0133357 0.0144677 0.0139233 0.0142898 0.0137696 0.0144728 0.0142898 0.0139278 0.013772 0.00135759 0.00167666 0.00107397 0.0012727 0.00167666 0.00199573 0.0012727 0.00155242 0.00107397 0.0012727 0.000714677 0.0008779 0.0012727 0.00155242 0.0008779 0.00104112 0.0107701 0.0109532 0.0117288 0.0119973 0.0109532 0.0110033 0.0119973 0.0119856 0.0117288 0.0119973 0.0126021 0.0128701 0.0119973 0.0119856 0.0128701 0.0129369 0.00201537 0.00236144 0.00227222 0.00262682 0.00236144 0.0027075 0.00262682 0.00304865 0.00227222 0.00262682 0.00249952 0.00294467 0.00262682 0.00304865 0.00294467 0.00338981 0.0126021 0.0128701 0.0133357 0.0136217 0.0128701 0.0129369 0.0136217 0.0136672 0.0133357 0.0136217 0.013882 0.0141982 0.0136217 0.0136672 0.0141982 0.0142363 0.010809 0.0117592 0.010998 0.0120395 0.0117592 0.0126352 0.0120395 0.0128749 0.010998 0.0120395 0.0110527 0.0120244 0.00187479 0.00210015 0.0022622 0.00250909 0.00210015 0.00232551 0.00250909 0.00280609 0.0022622 0.00250909 0.00264961 0.00296814 0.00250909 0.00280609 0.00296814 0.00328668 0.00326708 0.00327845 0.00400824 0.00400449 0.00327845 0.00328983 0.00400449 0.00396351 0.00400824 0.00400449 0.0047494 0.00484715 0.00400449 0.00396351 0.00484715 0.00479917 0.00328983 0.00317397 0.00396351 0.00388482 0.00317397 0.00305811 0.00388482 0.00369197 0.00396351 0.00388482 0.00479917 0.00470781 0.00388482 0.00369197 0.00470781 0.00448487 0.00305811 0.00282101 0.00369197 0.00346404 0.00282101 0.00258391 0.00346404 0.00312008 0.00369197 0.00346404 0.00448487 0.00420884 0.00346404 0.00312008 0.00420884 0.00380051 0.00258391 0.00222654 0.00312008 0.00274473 0.00222654 0.00186916 0.00274473 0.00226896 0.00312008 0.00274473 0.00380051 0.00334197 0.00274473 0.00226896 0.00334197 0.00276994 0.0141982 0.0142363 0.0145088 0.014583 0.0104059 0.00973903 0.0113486 0.0106843 0.00973903 0.00890635 0.0106843 0.0097235 0.0113486 0.0106843 0.0122722 0.0114911 0.00890635 0.00779018 0.0097235 0.00855503 0.00779018 0.00651198 0.00855503 0.0071266 0.00176177 0 0.00189496 0 0.00329599 0.0039413 0.00340863 0.00405743 0.0039413 0.0045866 0.00405743 0.0048189 0.00340863 0.00405743 0.00352126 0.00414694 0.00405743 0.0048189 0.00414694 0.00493172 0.0104553 0.0113882 0.00978573 0.0107218 0.0113882 0.0123007 0.0107218 0.0115211 0.00978573 0.0107218 0.00894928 0.00975826 0.00352126 0.00414694 0.00351841 0.0042037 0.00414694 0.00493172 0.0042037 0.00500631 0.00351841 0.0042037 0.00351556 0.00415477 0.0042037 0.00500631 0.00415477 0.00496194 0.00894928 0.00975826 0.0078279 0.00858581 0.0078279 0.00858581 0.00654351 0.00715237 0.00351556 0.00415477 0.00339137 0.00407079 0.00415477 0.00496194 0.00407079 0.00486549 0.00339137 0.00407079 0.00326719 0.00386695 0.00407079 0.00486549 0.00386695 0.0046341 0.00177021 0.00190189 0 0 0.00326719 0.00386695 0.0030116 0.0036266 0.00386695 0.0046341 0.0036266 0.00434748 0.0030116 0.0036266 0.00275601 0.00326531 0.0036266 0.00434748 0.00326531 0.00392471 0.00186916 0.00145508 0.00226896 0.00177612 0.00145508 0.000973703 0.00177612 0.00121281 0.00226896 0.00177612 0.00276994 0.00213489 0.00177612 0.00121281 0.00213489 0.00145191 0.00213489 0.00145191 0.00255713 0.00175241 0.00255713 0.00175241 0.00300535 0.0020529 0.00275601 0.00326531 0.00237587 0.00287198 0.00326531 0.00392471 0.00287198 0.00345042 0.00237587 0.00287198 0.00199573 0.00237409 0.00287198 0.00345042 0.00237409 0.00285975 0.00150095 0.000755729 0.000755743 0.000387546 0.000755729 0 0.000387546 0 0.000755743 0.000387546 0 0 0.000387546 0 0 0 0.00199573 0.00237409 0.00155242 0.00185824 0.00237409 0.00285975 0.00185824 0.00220401 0.00155242 0.00185824 0.00104112 0.00126975 0.00185824 0.00220401 0.00126975 0.00149837 0.00220401 0.0026156 0.00149837 0.00179246 0.0026156 0.00305486 0.00179246 0.00208654 0.00575755 0.00594368 0.00616985 0.00635655 0.00594368 0.00609502 0.00635655 0.00653607 0.00616985 0.00635655 0.00658216 0.00680842 0.00635655 0.00653607 0.00680842 0.00703469 0.00584934 0.00624989 0.00604134 0.00644216 0.00624989 0.00665043 0.00644216 0.00688252 0.00604134 0.00644216 0.00619778 0.00662681 0.00644216 0.00688252 0.00662681 0.00711461 0.00493854 0.00508378 0.00534804 0.0054941 0.00508378 0.00522901 0.0054941 0.00566202 0.00534804 0.0054941 0.00575755 0.00594368 0.0054941 0.00566202 0.00594368 0.00609502 0.0047494 0.00479827 0.0051876 0.00521835 0.00479827 0.00484715 0.00521835 0.00523446 0.0051876 0.00521835 0.00562581 0.00567273 0.00521835 0.00523446 0.00567273 0.00571965 0.00484715 0.00482316 0.00523446 0.00524399 0.00482316 0.00479917 0.00524399 0.00520205 0.00523446 0.00524399 0.00571965 0.00570798 0.00524399 0.00520205 0.00570798 0.0056963 0.00479917 0.00475349 0.00520205 0.00517408 0.00475349 0.00470781 0.00517408 0.00509367 0.00520205 0.00517408 0.0056963 0.00563553 0.00517408 0.00509367 0.00563553 0.00557475 0.00470781 0.00459634 0.00509367 0.00500662 0.00459634 0.00448487 