# vtk DataFile Version 3.0
#This file was generated by the deal.II library on 2021/4/23 at 0:45:42
ASCII
DATASET UNSTRUCTURED_GRID

FIELD FieldData 2
CYCLE 1 1 int
83
TIME 1 1 double
0.166
POINTS 6804 double
-1 -1 0
-0.75 -1 0
-1 -0.75 0
-0.75 -0.75 0
-0.75 -1 0
-0.5 -1 0
-0.75 -0.75 0
-0.5 -0.75 0
-1 -0.75 0
-0.75 -0.75 0
-1 -0.5 0
-0.75 -0.5 0
-0.75 -0.75 0
-0.5 -0.75 0
-0.75 -0.5 0
-0.5 -0.5 0
-0.5 -1 0
-0.25 -1 0
-0.5 -0.75 0
-0.25 -0.75 0
-0.25 -1 0
0 -1 0
-0.25 -0.75 0
0 -0.75 0
-0.5 -0.75 0
-0.25 -0.75 0
-0.5 -0.5 0
-0.25 -0.5 0
-1 -0.5 0
-0.75 -0.5 0
-1 -0.25 0
-0.75 -0.25 0
0.125 -0.75 0
0.25 -0.75 0
0.125 -0.625 0
0.25 -0.625 0
0 -0.625 0
0.125 -0.625 0
0 -0.5 0
0.125 -0.5 0
0.125 -0.625 0
0.25 -0.625 0
0.125 -0.5 0
0.25 -0.5 0
0 -0.5 0
0.125 -0.5 0
0 -0.375 0
0.125 -0.375 0
0.125 -0.5 0
0.25 -0.5 0
0.125 -0.375 0
0.25 -0.375 0
0 -0.375 0
0.125 -0.375 0
0 -0.25 0
0.125 -0.25 0
0.125 -0.375 0
0.25 -0.375 0
0.125 -0.25 0
0.25 -0.25 0
-1 0 0
-0.875 0 0
-1 0.125 0
-0.875 0.125 0
-0.875 0 0
-0.75 0 0
-0.875 0.125 0
-0.75 0.125 0
-1 0.125 0
-0.875 0.125 0
-1 0.25 0
-0.875 0.25 0
-0.75 -0.5 0
-0.625 -0.5 0
-0.75 -0.375 0
-0.625 -0.375 0
-0.625 -0.5 0
-0.5 -0.5 0
-0.625 -0.375 0
-0.5 -0.375 0
-0.75 -0.375 0
-0.625 -0.375 0
-0.75 -0.25 0
-0.625 -0.25 0
-0.625 -0.375 0
-0.5 -0.375 0
-0.625 -0.25 0
-0.5 -0.25 0
-0.25 -0.75 0
-0.125 -0.75 0
-0.25 -0.625 0
-0.125 -0.625 0
-0.125 -0.75 0
0 -0.75 0
-0.125 -0.625 0
0 -0.625 0
-0.25 -0.625 0
-0.125 -0.625 0
-0.25 -0.5 0
-0.125 -0.5 0
-1 -0.25 0
-0.875 -0.25 0
-1 -0.125 0
-0.875 -0.125 0
-0.875 -0.25 0
-0.75 -0.25 0
-0.875 -0.125 0
-0.75 -0.125 0
-1 -0.125 0
-0.875 -0.125 0
-1 0 0
-0.875 0 0
-0.5 -0.5 0
-0.375 -0.5 0
-0.5 -0.375 0
-0.375 -0.375 0
-0.375 -0.5 0
-0.25 -0.5 0
-0.375 -0.375 0
-0.25 -0.375 0
-0.5 -0.375 0
-0.375 -0.375 0
-0.5 -0.25 0
-0.375 -0.25 0
-0.375 -0.375 0
-0.25 -0.375 0
-0.375 -0.25 0
-0.25 -0.25 0
-0.25 -0.5 0
-0.125 -0.5 0
-0.25 -0.375 0
-0.125 -0.375 0
-0.125 -0.5 0
0 -0.5 0
-0.125 -0.375 0
0 -0.375 0
-0.25 -0.375 0
-0.125 -0.375 0
-0.25 -0.25 0
-0.125 -0.25 0
-0.125 -0.375 0
0 -0.375 0
-0.125 -0.25 0
0 -0.25 0
0 -1 0
0.125 -1 0
0 -0.875 0
0.125 -0.875 0
0.125 -1 0
0.25 -1 0
0.125 -0.875 0
0.25 -0.875 0
0 -0.875 0
0.125 -0.875 0
0 -0.75 0
0.125 -0.75 0
0.125 -0.875 0
0.25 -0.875 0
0.125 -0.75 0
0.25 -0.75 0
0.25 -1 0
0.375 -1 0
0.25 -0.875 0
0.375 -0.875 0
0.375 -1 0
0.5 -1 0
0.375 -0.875 0
0.5 -0.875 0
0.5 -1 0
0.625 -1 0
0.5 -0.875 0
0.625 -0.875 0
0.625 -1 0
0.75 -1 0
0.625 -0.875 0
0.75 -0.875 0
0.75 -1 0
0.875 -1 0
0.75 -0.875 0
0.875 -0.875 0
0.875 -1 0
1 -1 0
0.875 -0.875 0
1 -0.875 0
0.75 -0.875 0
0.875 -0.875 0
0.75 -0.75 0
0.875 -0.75 0
0.875 -0.875 0
1 -0.875 0
0.875 -0.75 0
1 -0.75 0
-0.125 -0.25 0
0 -0.25 0
-0.125 -0.125 0
0 -0.125 0
0.875 -0.75 0
1 -0.75 0
0.875 -0.625 0
1 -0.625 0
0.875 -0.625 0
1 -0.625 0
0.875 -0.5 0
1 -0.5 0
-1 0.875 0
-0.875 0.875 0
-1 1 0
-0.875 1 0
0.125 -0.125 0
0.25 -0.125 0
0.125 0 0
0.25 0 0
0.25 -0.125 0
0.375 -0.125 0
0.25 0 0
0.375 0 0
0.375 -0.125 0
0.5 -0.125 0
0.375 0 0
0.5 0 0
0.875 -0.5 0
1 -0.5 0
0.875 -0.375 0
1 -0.375 0
0.875 -0.375 0
1 -0.375 0
0.875 -0.25 0
1 -0.25 0
0.5 -0.125 0
0.625 -0.125 0
0.5 0 0
0.625 0 0
0.625 -0.125 0
0.75 -0.125 0
0.625 0 0
0.75 0 0
0.75 -0.25 0
0.875 -0.25 0
0.75 -0.125 0
0.875 -0.125 0
0.875 -0.25 0
1 -0.25 0
0.875 -0.125 0
1 -0.125 0
0.75 -0.125 0
0.875 -0.125 0
0.75 0 0
0.875 0 0
0.875 -0.125 0
1 -0.125 0
0.875 0 0
1 0 0
-0.625 0.25 0
-0.5625 0.25 0
-0.625 0.3125 0
-0.5625 0.3125 0
-0.625 0.3125 0
-0.5625 0.3125 0
-0.625 0.375 0
-0.5625 0.375 0
-0.75 0.375 0
-0.6875 0.375 0
-0.75 0.4375 0
-0.6875 0.4375 0
-0.6875 0.375 0
-0.625 0.375 0
-0.6875 0.4375 0
-0.625 0.4375 0
-0.1875 0.125 0
-0.125 0.125 0
-0.1875 0.1875 0
-0.125 0.1875 0
-0.875 0.75 0
-0.8125 0.75 0
-0.875 0.8125 0
-0.8125 0.8125 0
-0.875 0.8125 0
-0.8125 0.8125 0
-0.875 0.875 0
-0.8125 0.875 0
-0.5 0.125 0
-0.4375 0.125 0
-0.5 0.1875 0
-0.4375 0.1875 0
-0.875 0.5 0
-0.8125 0.5 0
-0.875 0.5625 0
-0.8125 0.5625 0
-0.875 0.5625 0
-0.8125 0.5625 0
-0.875 0.625 0
-0.8125 0.625 0
-0.875 0.625 0
-0.8125 0.625 0
-0.875 0.6875 0
-0.8125 0.6875 0
-0.8125 0.625 0
-0.75 0.625 0
-0.8125 0.6875 0
-0.75 0.6875 0
-0.875 0.6875 0
-0.8125 0.6875 0
-0.875 0.75 0
-0.8125 0.75 0
-0.75 0.9375 0
-0.6875 0.9375 0
-0.75 1 0
-0.6875 1 0
-0.5625 0.0625 0
-0.5 0.0625 0
-0.5625 0.125 0
-0.5 0.125 0
-0.6875 0.125 0
-0.625 0.125 0
-0.6875 0.1875 0
-0.625 0.1875 0
-0.625 0.125 0
-0.5625 0.125 0
-0.625 0.1875 0
-0.5625 0.1875 0
-0.5625 0.125 0
-0.5 0.125 0
-0.5625 0.1875 0
-0.5 0.1875 0
-0.625 0.1875 0
-0.5625 0.1875 0
-0.625 0.25 0
-0.5625 0.25 0
-0.5625 0.1875 0
-0.5 0.1875 0
-0.5625 0.25 0
-0.5 0.25 0
-0.875 0.25 0
-0.8125 0.25 0
-0.875 0.3125 0
-0.8125 0.3125 0
-0.8125 0.25 0
-0.75 0.25 0
-0.8125 0.3125 0
-0.75 0.3125 0
-0.875 0.3125 0
-0.8125 0.3125 0
-0.875 0.375 0
-0.8125 0.375 0
-1 0.375 0
-0.9375 0.375 0
-1 0.4375 0
-0.9375 0.4375 0
-0.9375 0.375 0
-0.875 0.375 0
-0.9375 0.4375 0
-0.875 0.4375 0
-1 0.4375 0
-0.9375 0.4375 0
-1 0.5 0
-0.9375 0.5 0
-0.9375 0.4375 0
-0.875 0.4375 0
-0.9375 0.5 0
-0.875 0.5 0
-0.8125 0.375 0
-0.75 0.375 0
-0.8125 0.4375 0
-0.75 0.4375 0
-0.875 0.4375 0
-0.8125 0.4375 0
-0.875 0.5 0
-0.8125 0.5 0
-0.8125 0.4375 0
-0.75 0.4375 0
-0.8125 0.5 0
-0.75 0.5 0
-0.75 0.25 0
-0.6875 0.25 0
-0.75 0.3125 0
-0.6875 0.3125 0
-0.75 0.3125 0
-0.6875 0.3125 0
-0.75 0.375 0
-0.6875 0.375 0
-0.6875 0.3125 0
-0.625 0.3125 0
-0.6875 0.375 0
-0.625 0.375 0
-0.25 0 0
-0.1875 0 0
-0.25 0.0625 0
-0.1875 0.0625 0
-0.1875 0 0
-0.125 0 0
-0.1875 0.0625 0
-0.125 0.0625 0
-0.25 0.0625 0
-0.1875 0.0625 0
-0.25 0.125 0
-0.1875 0.125 0
-0.1875 0.0625 0
-0.125 0.0625 0
-0.1875 0.125 0
-0.125 0.125 0
-0.0625 0.0625 0
0 0.0625 0
-0.0625 0.125 0
0 0.125 0
-0.125 0.125 0
-0.0625 0.125 0
-0.125 0.1875 0
-0.0625 0.1875 0
-0.0625 0.125 0
0 0.125 0
-0.0625 0.1875 0
0 0.1875 0
-0.125 0.1875 0
-0.0625 0.1875 0
-0.125 0.25 0
-0.0625 0.25 0
-0.0625 0.1875 0
0 0.1875 0
-0.0625 0.25 0
0 0.25 0
-1 0.75 0
-0.9375 0.75 0
-1 0.8125 0
-0.9375 0.8125 0
-0.9375 0.75 0
-0.875 0.75 0
-0.9375 0.8125 0
-0.875 0.8125 0
-1 0.8125 0
-0.9375 0.8125 0
-1 0.875 0
-0.9375 0.875 0
-0.9375 0.8125 0
-0.875 0.8125 0
-0.9375 0.875 0
-0.875 0.875 0
-0.875 0.875 0
-0.8125 0.875 0
-0.875 0.9375 0
-0.8125 0.9375 0
-0.8125 0.875 0
-0.75 0.875 0
-0.8125 0.9375 0
-0.75 0.9375 0
-0.875 0.9375 0
-0.8125 0.9375 0
-0.875 1 0
-0.8125 1 0
-0.8125 0.9375 0
-0.75 0.9375 0
-0.8125 1 0
-0.75 1 0
-0.5 0 0
-0.4375 0 0
-0.5 0.0625 0
-0.4375 0.0625 0
-0.4375 0 0
-0.375 0 0
-0.4375 0.0625 0
-0.375 0.0625 0
-0.5 0.0625 0
-0.4375 0.0625 0
-0.5 0.125 0
-0.4375 0.125 0
-0.4375 0.0625 0
-0.375 0.0625 0
-0.4375 0.125 0
-0.375 0.125 0
-0.375 0 0
-0.3125 0 0
-0.375 0.0625 0
-0.3125 0.0625 0
-0.3125 0 0
-0.25 0 0
-0.3125 0.0625 0
-0.25 0.0625 0
-0.375 0.0625 0
-0.3125 0.0625 0
-0.375 0.125 0
-0.3125 0.125 0
-0.3125 0.0625 0
-0.25 0.0625 0
-0.3125 0.125 0
-0.25 0.125 0
-1 0.5 0
-0.9375 0.5 0
-1 0.5625 0
-0.9375 0.5625 0
-0.9375 0.5 0
-0.875 0.5 0
-0.9375 0.5625 0
-0.875 0.5625 0
-1 0.5625 0
-0.9375 0.5625 0
-1 0.625 0
-0.9375 0.625 0
-0.9375 0.5625 0
-0.875 0.5625 0
-0.9375 0.625 0
-0.875 0.625 0
-1 0.625 0
-0.9375 0.625 0
-1 0.6875 0
-0.9375 0.6875 0
-0.9375 0.625 0
-0.875 0.625 0
-0.9375 0.6875 0
-0.875 0.6875 0
-1 0.6875 0
-0.9375 0.6875 0
-1 0.75 0
-0.9375 0.75 0
-0.9375 0.6875 0
-0.875 0.6875 0
-0.9375 0.75 0
-0.875 0.75 0
-0.75 -0.125 0
-0.6875 -0.125 0
-0.75 -0.0625 0
-0.6875 -0.0625 0
-0.6875 -0.125 0
-0.625 -0.125 0
-0.6875 -0.0625 0
-0.625 -0.0625 0
-0.75 -0.0625 0
-0.6875 -0.0625 0
-0.75 0 0
-0.6875 0 0
-0.6875 -0.0625 0
-0.625 -0.0625 0
-0.6875 0 0
-0.625 0 0
-0.625 -0.125 0
-0.5625 -0.125 0
-0.625 -0.0625 0
-0.5625 -0.0625 0
-0.5625 -0.125 0
-0.5 -0.125 0
-0.5625 -0.0625 0
-0.5 -0.0625 0
-0.625 -0.0625 0
-0.5625 -0.0625 0
-0.625 0 0
-0.5625 0 0
-0.5 -0.25 0
-0.4375 -0.25 0
-0.5 -0.1875 0
-0.4375 -0.1875 0
-0.4375 -0.25 0
-0.375 -0.25 0
-0.4375 -0.1875 0
-0.375 -0.1875 0
-0.5 -0.1875 0
-0.4375 -0.1875 0
-0.5 -0.125 0
-0.4375 -0.125 0
-0.4375 -0.1875 0
-0.375 -0.1875 0
-0.4375 -0.125 0
-0.375 -0.125 0
-0.375 -0.25 0
-0.3125 -0.25 0
-0.375 -0.1875 0
-0.3125 -0.1875 0
-0.3125 -0.25 0
-0.25 -0.25 0
-0.3125 -0.1875 0
-0.25 -0.1875 0
-0.375 -0.1875 0
-0.3125 -0.1875 0
-0.375 -0.125 0
-0.3125 -0.125 0
-0.3125 -0.1875 0
-0.25 -0.1875 0
-0.3125 -0.125 0
-0.25 -0.125 0
-0.75 -0.25 0
-0.6875 -0.25 0
-0.75 -0.1875 0
-0.6875 -0.1875 0
-0.6875 -0.25 0
-0.625 -0.25 0
-0.6875 -0.1875 0
-0.625 -0.1875 0
-0.75 -0.1875 0
-0.6875 -0.1875 0
-0.75 -0.125 0
-0.6875 -0.125 0
-0.6875 -0.1875 0
-0.625 -0.1875 0
-0.6875 -0.125 0
-0.625 -0.125 0
-0.625 -0.25 0
-0.5625 -0.25 0
-0.625 -0.1875 0
-0.5625 -0.1875 0
-0.5625 -0.25 0
-0.5 -0.25 0
-0.5625 -0.1875 0
-0.5 -0.1875 0
-0.625 -0.1875 0
-0.5625 -0.1875 0
-0.625 -0.125 0
-0.5625 -0.125 0
-0.5625 -0.1875 0
-0.5 -0.1875 0
-0.5625 -0.125 0
-0.5 -0.125 0
0 -0.75 0
0.0625 -0.75 0
0 -0.6875 0
0.0625 -0.6875 0
0.0625 -0.75 0
0.125 -0.75 0
0.0625 -0.6875 0
0.125 -0.6875 0
0 -0.6875 0
0.0625 -0.6875 0
0 -0.625 0
0.0625 -0.625 0
0.0625 -0.6875 0
0.125 -0.6875 0
0.0625 -0.625 0
0.125 -0.625 0
-0.125 -0.625 0
-0.0625 -0.625 0
-0.125 -0.5625 0
-0.0625 -0.5625 0
-0.0625 -0.625 0
0 -0.625 0
-0.0625 -0.5625 0
0 -0.5625 0
-0.125 -0.5625 0
-0.0625 -0.5625 0
-0.125 -0.5 0
-0.0625 -0.5 0
-0.0625 -0.5625 0
0 -0.5625 0
-0.0625 -0.5 0
0 -0.5 0
-0.875 -0.125 0
-0.8125 -0.125 0
-0.875 -0.0625 0
-0.8125 -0.0625 0
-0.8125 -0.125 0
-0.75 -0.125 0
-0.8125 -0.0625 0
-0.75 -0.0625 0
-0.875 -0.0625 0
-0.8125 -0.0625 0
-0.875 0 0
-0.8125 0 0
-0.8125 -0.0625 0
-0.75 -0.0625 0
-0.8125 0 0
-0.75 0 0
0.25 -0.875 0
0.3125 -0.875 0
0.25 -0.8125 0
0.3125 -0.8125 0
0.3125 -0.875 0
0.375 -0.875 0
0.3125 -0.8125 0
0.375 -0.8125 0
0.25 -0.8125 0
0.3125 -0.8125 0
0.25 -0.75 0
0.3125 -0.75 0
0.3125 -0.8125 0
0.375 -0.8125 0
0.3125 -0.75 0
0.375 -0.75 0
0.375 -0.875 0
0.4375 -0.875 0
0.375 -0.8125 0
0.4375 -0.8125 0
0.4375 -0.875 0
0.5 -0.875 0
0.4375 -0.8125 0
0.5 -0.8125 0
0.375 -0.8125 0
[...]
POINT_DATA 6804
SCALARS U double 1
LOOKUP_TABLE default
0 0 0 3.23022e-05 0 0 3.23022e-05 0.000102142 0 3.23022e-05 0 5.2886e-05 3.23022e-05 0.000102142 5.2886e-05 0.000163893 0 0 0.000102142 0.000241185 0 0 0.000241185 0.000440448 0.000102142 0.000241185 0.000163893 0.000365504 0 5.2886e-05 0 0.000108666 0.000539592 0.000622303 0.000714262 0.000819739 0.00058194 0.000714262 0.000642278 0.00078367 0.000714262 0.000819739 0.00078367 0.000896438 0.000642278 0.00078367 0.000616026 0.000737726 0.00078367 0.000896438 0.000737726 0.000837191 0.000616026 0.000737726 0.000514192 0.000579071 0.000737726 0.000837191 0.000579071 0.000646353 0 0.000197187 0 0.00037615 0.000197187 0.000415453 0.00037615 0.000803286 0 0.00037615 0 0.000653173 5.2886e-05 0.00010839 8.0776e-05 0.000128221 0.00010839 0.000163893 0.000128221 0.000197999 8.0776e-05 0.000128221 0.000108666 0.000186945 0.000128221 0.000197999 0.000186945 0.000264064 0.000241185 0.000340817 0.000303345 0.000443658 0.000340817 0.000440448 0.000443658 0.00058194 0.000303345 0.000443658 0.000365504 0.000494823 0 5.4333e-05 0 9.79783e-05 5.4333e-05 0.000108666 9.79783e-05 0.000209227 0 9.79783e-05 0 0.000197187 0.000163893 0.000264699 0.000197999 0.000280817 0.000264699 0.000365504 0.000280817 0.000379833 0.000197999 0.000280817 0.000264064 0.000339619 0.000280817 0.000379833 0.000339619 0.000405248 0.000365504 0.000494823 0.000379833 0.000493026 0.000494823 0.000642278 0.000493026 0.000616026 0.000379833 0.000493026 0.000405248 0.000456336 0.000493026 0.000616026 0.000456336 0.000514192 0 0 0.000220224 0.000289477 0 0 0.000289477 0.000335104 0.000220224 0.000289477 0.000440448 0.000539592 0.000289477 0.000335104 0.000539592 0.000622303 0 0 0.000335104 0.000356196 0 0 0.000356196 0.000349334 0 0 0.000349334 0.00030678 0 0 0.00030678 0.000230219 0 0 0.000230219 0.000123105 0 0 0.000123105 0 0.000230219 0.000123105 0.000423946 0.00022846 0.000123105 0 0.00022846 0 0.000456336 0.000514192 0.000441273 0.000351497 0.00022846 0 0.00029898 0 0.00029898 0 0.000325987 0 0 0.000753443 0 0 0.000327954 0.000351605 0 0 0.000351605 0.000371006 0 0 0.000371006 0.000362347 0 0 0.000325987 0 0.000303353 0 0.000303353 0 0.000234604 0 0.000362347 0.000317729 0 0 0.000317729 0.000238403 0 0 0.000435409 0.000234604 0.000238403 0.000127433 0.000234604 0 0.000127433 0 0.000238403 0.000127433 0 0 0.000127433 0 0 0 0.00227099 0.00268303 0.00288844 0.00341614 0.00288844 0.00341614 0.0035434 0.00420585 0.00218278 0.00285128 0.00256337 0.00335524 0.00285128 0.0035434 0.00335524 0.00418127 0.0013675 0.000982157 0.00185708 0.00132808 0.00127683 0.00202017 0.00105682 0.00166786 0.00105682 0.00166786 0.000753443 0.00118474 0.00169173 0.00182116 0.00229916 0.00247921 0.00131602 0.00206295 0.00141656 0.00223298 0.00141656 0.00223298 0.00145339 0.00228451 0.00145339 0.00228451 0.00140989 0.00221849 0.00228451 0.00321318 0.00221849 0.00312708 0.00140989 0.00221849 0.00127683 0.00202017 0.000873838 0.00115302 0 0 0.00108585 0.00121707 0.00150368 0.00169173 0.0010468 0.00128535 0.00140881 0.00173084 0.00128535 0.00150368 0.00173084 0.00203681 0.00150368 0.00169173 0.00203681 0.00229916 0.00173084 0.00203681 0.00227099 0.00268303 0.00203681 0.00229916 0.00268303 0.00303404 0.000653173 0.00102108 0.000825148 0.00128513 0.00102108 0.00141656 0.00128513 0.00178998 0.000825148 0.00128513 0.00100223 0.00156345 0 0.000486439 0 0.000569008 0.000486439 0.00100223 0.000569008 0.00117099 0 0.000569008 0 0.000638491 0.000569008 0.00117099 0.000638491 0.00131602 0.00156345 0.00218278 0.00183205 0.00256337 0.00117099 0.00183205 0.00131602 0.00206295 0.00183205 0.00256337 0.00206295 0.00289313 0.00141656 0.00184238 0.00178998 0.00233106 0.00178998 0.00233106 0.00218278 0.00285128 0.00233106 0.00288844 0.00285128 0.0035434 0.000874425 0.000745011 0.00119675 0.0010002 0.000745011 0.000563424 0.0010002 0.000723641 0.00119675 0.0010002 0.00165954 0.0013675 0.0010002 0.000723641 0.0013675 0.000982157 0.000388054 0 0.000513805 0 0.000982157 0.000513805 0.00132808 0.000692833 0.000513805 0 0.000692833 0 0.00132808 0.000692833 0.00175863 0.000922072 0.000692833 0 0.000922072 0 0 0.000618053 0 0.000511712 0.000618053 0.00127683 0.000511712 0.00105682 0 0.000511712 0 0.000376721 0.000511712 0.00105682 0.000376721 0.000753443 0.000753443 0.00118474 0.000376721 0.00061592 0.00118474 0.00167328 0.00061592 0.000873838 0.000376721 0.00061592 0 0 0.00061592 0.000873838 0 0 0.000864725 0.000934432 0.00121707 0.00131172 0.000934432 0.00096551 0.00131172 0.00134723 0.00121707 0.00131172 0.00169173 0.00182116 0.00131172 0.00134723 0.00182116 0.00188069 0.00096551 0.000946562 0.00134723 0.00131302 0.000946562 0.000874425 0.00131302 0.00119675 0.00134723 0.00131302 0.00188069 0.00182551 0.00131302 0.00119675 0.00182551 0.00165954 0 0.000638491 0 0.000686715 0.000638491 0.00131602 0.000686715 0.00141656 0 0.000686715 0 0.00070329 0.000686715 0.00141656 0.00070329 0.00145339 0 0.00070329 0 0.000682158 0.00070329 0.00145339 0.000682158 0.00140989 0 0.000682158 0 0.000618053 0.000682158 0.00140989 0.000618053 0.00127683 0.000209227 0.000271516 0.000296229 0.000380493 0.000271516 0.000331602 0.000380493 0.000464168 0.000296229 0.000380493 0.000415453 0.000540934 0.000380493 0.000464168 0.000540934 0.000661027 0.000331602 0.000390271 0.000464168 0.000543211 0.000390271 0.000443303 0.000543211 0.000614074 0.000464168 0.000543211 0.000661027 0.000770295 0.000264064 0.000301841 0.000331975 0.000372698 0.000301841 0.000339619 0.000372698 0.000404845 0.000331975 0.000372698 0.000443303 0.000489366 0.000372698 0.000404845 0.000489366 0.000518269 0.000339619 0.000372434 0.000404845 0.000429796 0.000372434 0.000405248 0.000429796 0.000441673 0.000404845 0.000429796 0.000518269 0.000529545 0.000429796 0.000441673 0.000529545 0.000522634 0.000108666 0.000147805 0.000158947 0.000196192 0.000147805 0.000186945 0.000196192 0.000242594 0.000158947 0.000196192 0.000209227 0.000271516 0.000196192 0.000242594 0.000271516 0.000331602 0.000186945 0.000225504 0.000242594 0.00028856 0.000225504 0.000264064 0.00028856 0.000331975 0.000242594 0.00028856 0.000331602 0.000390271 0.00028856 0.000331975 0.000390271 0.000443303 0.000440448 0.00049002 0.000511194 0.000578419 0.00049002 0.000539592 0.000578419 0.000626927 0.000511194 0.000578419 0.00058194 0.000648101 0.000578419 0.000626927 0.000648101 0.000714262 0.000443658 0.000512799 0.00046924 0.000547504 0.000512799 0.00058194 0.000547504 0.000612109 0.00046924 0.000547504 0.000494823 0.00056855 0.000547504 0.000612109 0.00056855 0.000642278 9.79783e-05 0.000153603 0.000147583 0.000216502 0.000153603 0.000209227 0.000216502 0.000296229 0.000147583 0.000216502 0.000197187 0.00030632 0.000216502 0.000296229 0.00030632 0.000415453 0.000335104 0.00034565 0.000478704 0.00050578 0.00034565 0.000356196 0.00050578 0.00051565 0.000478704 0.00050578 0.000622303 0.000642157 0.00050578 0.00051565 0.000642157 0.000657128 0.000356196 0.000352765 0.00051565 0.000517614 0.000352765 0.000349334 0.000517614 0.000504553 0.00051565 0.000517614 0.000657128 0.000658466 0.000517614 0.000504553 0.000658466 0.000642781 0.000622303 0.000642157 0.000721021 0.000761593 0.000642157 0.000657128 0.000761593 0.000776607 0.000721021 0.000761593 0.000819739 0.000845065 0.000761593 0.000776607 0.000845065 0.000864306 0.00037615 0.000589718 0.000514662 0.00078493 0.000589718 0.000803286 0.00078493 0.0010867 0.000514662 0.00078493 0.000653173 0.00102108 0.00078493 0.0010867 0.00102108 0.00141656 0.000490396 0.000441273 0.000579613 0.000479603 0.000441273 0.000396385 0.000479603 0.000347679 0.000396385 0.000351497 0.000347679 0.000244755 0.000415453 0.000540934 0.000609369 0.000756475 0.000609369 0.000756475 0.000803286 0.0010468 0.000657128 0.000658466 0.000776607 0.000778564 0.000658466 0.000642781 0.000778564 0.000759746 0.000776607 0.000778564 0.000864306 0.00086588 0.000778564 0.000759746 0.00086588 0.000844836 0.000819739 0.000845065 0.000858088 0.000906021 0.000845065 0.000864306 0.000906021 0.00092329 0.000858088 0.000906021 0.000896438 0.000922958 0.000906021 0.00092329 0.000922958 0.000943345 0.00230871 0 0.00226325 0 0.00226325 0 0.00207061 0 0.000864306 0.00086588 0.00092329 0.000925244 0.00086588 0.000844836 0.000925244 0.000902604 0.00092329 0.000925244 0.000943345 0.000944663 0.000925244 0.000902604 0.000944663 0.000921397 0.000349334 0.000328057 0.000504553 0.000481925 0.000328057 0.00030678 0.000481925 0.000442908 0.000504553 0.000481925 0.000642781 0.000612832 0.000481925 0.000442908 0.000612832 0.000564203 0.00030678 0.0002685 0.000442908 0.000394155 0.0002685 0.000230219 0.000394155 0.000327083 0.000442908 0.000394155 0.000564203 0.000500694 0.000394155 0.000327083 0.000500694 0.000423946 0.000405248 0.000430792 0.000441673 0.000446764 0.000430792 0.000456336 0.000446764 0.000448804 0.000441673 0.000446764 0.000522634 0.000490396 0.000446764 0.000448804 0.000490396 0.000441273 0.00226119 0.00207046 0 0 0.000642781 0.000612832 0.000759746 0.000724382 0.000612832 0.000564203 0.000724382 0.000666588 0.000759746 0.000724382 0.000844836 0.00080542 0.000724382 0.000666588 0.00080542 0.000741004 0.00207061 0 0.00172619 0 0.00172619 0 0.0012375 0 0.00207046 0.00172617 0 0 0.00172617 0.00123753 0 0 0.0012375 0 0.000649989 0 0.00123753 0.000649989 0 0 0.000649989 0 0 0 0.000564203 0.000500694 0.000666588 0.000592506 0.000500694 0.000423946 0.000592506 0.000497013 0.000666588 0.000592506 0.000741004 0.000658225 0.000592506 0.000497013 0.000658225 0.000552977 0.000844836 0.00080542 0.000902604 0.000860314 0.00080542 0.000741004 0.000860314 0.000791466 0.000902604 0.000860314 0.000921397 0.000878189 0.000860314 0.000791466 0.000878189 0.000807754 0.000741004 0.000658225 0.000791466 0.000702919 0.000658225 0.000552977 0.000702919 0.000590213 0.000791466 0.000702919 0.000807754 0.000717373 0.000702919 0.000590213 0.000717373 0.000602459 0 0.000326586 0 0.000402488 0.000326586 0.000653173 0.000402488 0.000825148 0 0.000402488 0 0.000486439 0.000402488 0.000825148 0.000486439 0.00100223 0.000423946 0.000326203 0.000497013 0.000389223 0.000326203 0.00022846 0.000389223 0.00026372 0.000497013 0.000389223 0.000552977 0.000431702 0.000389223 0.00026372 0.000431702 0.00029898 0.000552977 0.000431702 0.000590213 0.000461855 0.000431702 0.00029898 0.000461855 0.000312483 0.000590213 0.000461855 0.000602459 0.000470292 0.000461855 0.000312483 0.000470292 0.000325987 0.000896438 0.000922958 0.000866815 0.000914492 0.000922958 0.000943345 0.000914492 0.000931228 0.000866815 0.000914492 0.000837191 0.000860255 0.000914492 0.000931228 0.000860255 0.000878819 0.000943345 0.000944663 0.000931228 0.000932775 0.000944663 0.000921397 0.000932775 0.000909677 0.000931228 0.000932775 0.000878819 0.000879646 0.000932775 0.000909677 0.000879646 0.000857769 0.000837191 0.000860255 0.000741772 0.00078194 0.000860255 0.000878819 0.00078194 0.000795732 0.000741772 0.00078194 0.000646353 0.000664674 0.00078194 0.000795732 0.000664674 0.000677773 0.000878819 0.000879646 0.000795732 0.000796749 0.000879646 0.000857769 0.000796749 0.000776823 0.000795732 0.000796749 0.000677773 0.000677977 0.000796749 0.000776823 0.000677977 0.000661104 0.000514192 0.000546632 0.000432845 0.000447812 0.000546632 0.000579071 0.000447812 0.000464459 0.000432845 0.000447812 0.000351497 0.000326665 0.000447812 0.000464459 0.000326665 0.000327954 0.000579071 0.000612712 0.000464459 0.000486999 0.000612712 0.000646353 0.000486999 0.000508483 0.000464459 0.000486999 0.000327954 0.000339779 0.000486999 0.000508483 0.000339779 0.000351605 0.000351497 0.000326665 0.000244755 0.00017563 0.000326665 0.000327954 0.00017563 0.000163977 0.000244755 0.00017563 0 0 0.00017563 0.000163977 0 0 0.000646353 0.000664674 0.000508483 0.000526903 0.000664674 0.000677773 0.000526903 0.00053492 0.000508483 0.000526903 0.000351605 0.000361305 0.000526903 0.00053492 0.000361305 0.000371006 0.000677773 0.000677977 0.00053492 0.000535764 0.000677977 0.000661104 0.000535764 0.000521646 0.00053492 0.000535764 0.000371006 0.000366676 0.000535764 0.000521646 0.000366676 0.000362347 0.000921397 0.000878189 0.000909677 0.00086687 0.000878189 0.000807754 0.00086687 0.000797393 0.000909677 0.00086687 0.000857769 0.000817409 0.00086687 0.000797393 0.000817409 0.000751844 0.000807754 0.000717373 0.000797393 0.000708118 0.000717373 0.000602459 0.000708118 0.000594536 0.000797393 0.000708118 0.000751844 0.000667743 0.000708118 0.000594536 0.000667743 0.00056092 0.000857769 0.000817409 0.000776823 0.000740219 0.000817409 0.000751844 0.000740219 0.000680907 0.000776823 0.000740219 0.000661104 0.000629825 0.000740219 0.000680907 0.000629825 0.000579571 0.000751844 0.000667743 0.000680907 0.000605101 0.000667743 0.00056092 0.000605101 0.00050748 0.000680907 0.000605101 0.000579571 0.000514105 0.000605101 0.00050748 0.000514105 0.000435409 0.000602459 0.000470292 0.000594536 0.000465227 0.000470292 0.000325987 0.000465227 0.00031467 0.000594536 0.000465227 0.00056092 0.000437838 0.000465227 0.00031467 0.000437838 0.000303353 0.00056092 0.000437838 0.00050748 0.000397387 0.000437838 0.000303353 0.000397387 0.000268978 0.00050748 0.000397387 0.000435409 0.000335006 0.000397387 0.000268978 0.000335006 0.000234604 0.000661104 0.000629825 0.000521646 0.000497785 0.000629825 0.000579571 0.000497785 0.000457209 0.000521646 0.000497785 0.000362347 0.000340038 0.000497785 0.000457209 0.000340038 0.000317729 0.000579571 0.000514105 0.000457209 0.000406716 0.000514105 0.000435409 0.000406716 0.000336906 0.000457209 0.000406716 0.000317729 0.000278066 0.000406716 0.000336906 0.000278066 0.000238403 0.00383619 0.00353939 0.00428074 0.00396478 0.00353939 0.00316881 0.00396478 0.00355209 0.00428074 0.00396478 0.00476978 0.00438533 0.00396478 0.00355209 0.00438533 0.00394529 0.00355209 0.00307977 0.00394529 0.00341165 0.00394529 0.00341165 0.0043293 0.0037548 0.0037548 0.00310461 0.00408223 0.00337374 0.00324756 0.00222496 0.00333822 0.0022626 0.00222496 0.00110869 0.0022626 0.00115444 0.00110869 0 0.00115444 0 0.0022626 0.00115444 0.00230871 0.00115435 0.00115444 0 0.00115435 0 0.00470593 0.00408223 0.00507681 0.00439043 0.00408223 0.00337374 0.00439043 0.00364389 0.00337738 0.00230871 0.00339541 0.00228598 0.00339541 0.00228598 0.00333792 0.00226325 0.00268303 0.00285853 0.00304959 0.00325332 0.00285853 0.00303404 0.00325332 0.00343427 0.00304959 0.00325332 0.00341614 0.00367117 0.00325332 0.00343427 0.00367117 0.00387651 0.00333792 0.00226325 0.00322715 0.00216693 0.00322715 0.00216693 0.00305397 0.00207061 0.00341614 0.00367117 0.003811 0.00408433 0.00367117 0.00387651 0.00408433 0.00431778 0.003811 0.00408433 0.00420585 0.0045165 0.00408433 0.00431778 0.0045165 0.00477835 0.00281237 0.00217835 0.00310461 0.00238596 0.00217835 0.00146671 0.00238596 0.00161545 0.00310461 0.00238596 0.00337374 0.00259071 0.00238596 0.00161545 0.00259071 0.00175938 0.00337374 0.00259071 0.00364389 0.00279212 0.00256337 0.00295931 0.00272825 0.00315533 0.00295931 0.00335524 0.00315533 0.0035976 0.00272825 0.00315533 0.00289313 0.00332784 0.00315533 0.0035976 0.00332784 0.00379574 0.0043439 0.00438999 0.00334981 0.00338834 0.00323949 0.00334981 0.00222323 0.00225757 0.00222323 0.00225757 0.00110737 0.00115627 0.00110737 0.00115627 0 0 0.00115627 0.00116057 0 0 0.00338834 0.00339001 0.00229743 0.00229669 0.00339001 0.00333912 0.00229669 0.00226119 0.00333912 0.00322652 0.00226119 0.00216582 0.00322652 0.00305371 0.00216582 0.00207046 0.00229743 0.00229669 0.00116057 0.00116079 0.00229669 0.00226119 0.00116079 0.00113059 0.00116057 0.00116079 0 0 0.00116079 0.00113059 0 0 0.00335524 0.00376826 0.0035976 0.00403394 0.00376826 0.00418127 0.00403394 0.00448219 0.0035976 0.00403394 0.00379574 0.00426019 0.00403394 0.00448219 0.00426019 0.0047374 0.0035434 0.00387462 0.00386234 0.00424391 0.00387462 0.00420585 0.00424391 0.00459799 0.00386234 0.00424391 0.00418127 0.00458778 0.00424391 0.00459799 0.00458778 0.00497411 0.00305397 0.00207061 0.00281593 0.0018984 0.00281593 0.0018984 0.00253143 0.00172619 0.00420585 0.0045165 0.00459799 0.00494119 0.0045165 0.00477835 0.00494119 0.0052351 0.00459799 0.00494119 0.00497411 0.00534793 0.00494119 0.0052351 0.00534793 0.00567175 0.00327245 0.00253143 0.00284563 0.00220101 0.00253143 0.00172619 0.00220101 0.00148185 0.00220101 0.00148185 0.00180894 0.0012375 0.00418127 0.00458778 0.00448219 0.00492168 0.00458778 0.00497411 0.00492168 0.00533879 0.00448219 0.00492168 0.0047374 0.00520906 0.00492168 0.00533879 0.00520906 0.00565609 0.00305371 0.00281567 0.00207046 0.00189831 0.00281567 0.00253148 0.00189831 0.00172617 0.00327255 0.00284561 0.00253148 0.00220107 0.00253148 0.00220107 0.00172617 0.00148185 0.00220107 0.00180893 0.00148185 0.00123753 0.00497411 0.00534793 0.00533879 0.00574193 0.00534793 0.00567175 0.00574193 0.00609118 0.00533879 0.00574193 0.00565609 0.00608489 0.00574193 0.00609118 0.00608489 0.00645435 0.00165954 0.00151352 0.0019153 0.00177862 0.00151352 0.0013675 0.00177862 0.00161229 0.0019153 0.00177862 0.00224599 0.00208381 0.00177862 0.00161229 0.00208381 0.00185708 0.00180894 0.0012375 0.0014007 0.000943746 0.00180893 0.0014007 0.00123753 0.00094376 0.0014007 0.000943746 0.00094376 0.000649989 0.00224599 0.00208381 0.00257825 0.00239279 0.00208381 0.00185708 0.00239279 0.00213134 0.00257825 0.00239279 0.00298039 0.0027628 0.00239279 0.00213134 0.0027628 0.00246012 0.00185708 0.00159258 0.00213134 0.00185919 0.00159258 0.00132808 0.00185919 0.00154335 0.00213134 0.00185919 0.00246012 0.00214566 0.00185919 0.00154335 0.00214566 0.00175863 0.00202017 0.00239671 0.00184401 0.00222418 0.00239671 0.00283396 0.00222418 0.00262774 0.00184401 0.00222418 0.00166786 0.00197813 0.00222418 0.00262774 0.00197813 0.00234282 0.00519196 0.00530692 0.00569509 0.00583671 0.00530692 0.00536532 0.00583671 0.00587497 0.00166786 0.00197813 0.0014263 0.00172615 0.00197813 0.00234282 0.00172615 0.00204082 0.0014263 0.00172615 0.00118474 0.00142901 0.00172615 0.00204082 0.00142901 0.00167328 0.00662831 0.0067989 0.00704515 0.00721587 0.0067989 0.00685658 0.00721587 0.00729743 0.00229916 0.00238918 0.0026666 0.00276844 0.00238918 0.00247921 0.00276844 0.00284999 0.0026666 0.00276844 0.00303404 0.00318629 0.00276844 0.00284999 0.00318629 0.00328066 0.00247921 0.00254239 0.00284999 0.00292026 0.00254239 0.00255071 0.00292026 0.0029285 0.00284999 0.00292026 0.00328066 0.00336493 0.00292026 0.0029285 0.00336493 0.0033762 0.00188069 0.0018531 0.00217558 0.00217347 0.0018531 0.00182551 0.00217347 0.00211244 0.00217558 0.00217347 0.00255071 0.00254534 0.00217347 0.00211244 0.00254534 0.00247363 0.00514161 0.00565897 0.00525178 0.00579776 0.00525178 0.00579776 0.0053107 0.00583426 0.00661249 0.00703621 0.00678038 0.00720413 0.00678038 0.00720413 0.00683637 0.00728392 0.00374895 0.00421427 0.0034568 0.00390262 0.00421427 0.00471956 0.00390262 0.00433914 0.00390262 0.00433914 0.00350105 0.0039032 0.00350105 0.0039032 0.00303076 0.00337485 0.00278353 0.00308189 0.00215529 0.00236835 0.00308189 0.00335697 0.00236835 0.00257794 0.00215529 0.00236835 0.00145031 0.0016034 0.00236835 0.00257794 0.0016034 0.00175058 0.00335697 0.00363064 0.00257794 0.00278623 0.00257794 0.00278623 0.00175058 0.0018901 0.00182551 0.00174253 0.00211244 0.00204494 0.00174253 0.00165954 0.00204494 0.0019153 0.00211244 0.00204494 0.00247363 0.00239535 0.00204494 0.0019153 0.00239535 0.00224599 0.0039032 0.00429845 0.00337485 0.00372793 0.00372793 0.00406185 0.00308189 0.00335697 0.00468147 0.00506168 0.00406185 0.00437581 0.00506168 0.00536937 0.00437581 0.00467139 0.00406185 0.00437581 0.00335697 0.00363064 0.00729743 0.00728763 0.007677 0.00762533 0.00728392 0.00766857 0.00727302 0.00761571 0.00201578 0.00102436 0.00211605 0.00107626 0.00102436 0 0.00107626 0 0.00211605 0.00107626 0.00222496 0.00110869 0.00107626 0 0.00110869 0 0.00201047 0.00211258 0.00102211 0.00107451 0.00211258 0.00222323 0.00107451 0.00110737 0.00102211 0.00107451 0 0 0.00107451 0.00110737 0 0 0.00175863 0.00134035 0.0