<?xml version="1.0" ?> 
<!-- 
# vtk DataFile Version 3.0
#This file was generated by the deal.II library on 23:53:54 at 2021/5/3
-->
<VTKFile type="UnstructuredGrid" version="0.1" byte_order="LittleEndian">
<UnstructuredGrid>
<FieldData>
<DataArray type="Float32" Name="CYCLE" NumberOfTuples="1" format="ascii">174</DataArray>
<DataArray type="Float32" Name="TIME" NumberOfTuples="1" format="ascii">0.348</DataArray>
</FieldData>
<Piece NumberOfPoints="6876" NumberOfCells="1719" >
  <Points>
    <DataArray type="Float32" NumberOfComponents="3" format="ascii">
-1 -1 0
-0.75 -1 0
-1 -0.75 0
-0.75 -0.75 0
-0.75 -1 0
-0.5 -1 0
-0.75 -0.75 0
-0.5 -0.75 0
-1 -0.75 0
-0.75 -0.75 0
-1 -0.5 0
-0.75 -0.5 0
-0.75 -0.75 0
-0.5 -0.75 0
-0.75 -0.5 0
-0.5 -0.5 0
-0.5 -1 0
-0.25 -1 0
-0.5 -0.75 0
-0.25 -0.75 0
-1 -0.5 0
-0.75 -0.5 0
-1 -0.25 0
-0.75 -0.25 0
-0.75 -0.5 0
-0.5 -0.5 0
-0.75 -0.25 0
-0.5 -0.25 0
-1 -0.25 0
-0.75 -0.25 0
-1 0 0
-0.75 0 0
-0.5 -0.5 0
-0.25 -0.5 0
-0.5 -0.25 0
-0.25 -0.25 0
0.25 -1 0
0.5 -1 0
0.25 -0.75 0
0.5 -0.75 0
0.5 -1 0
0.75 -1 0
0.5 -0.75 0
0.75 -0.75 0
0.75 -1 0
1 -1 0
0.75 -0.75 0
1 -0.75 0
0.75 -0.25 0
1 -0.25 0
0.75 0 0
1 0 0
-1 0 0
-0.75 0 0
-1 0.25 0
-0.75 0.25 0
-0.75 -0.25 0
-0.625 -0.25 0
-0.75 -0.125 0
-0.625 -0.125 0
-0.625 -0.25 0
-0.5 -0.25 0
-0.625 -0.125 0
-0.5 -0.125 0
-0.75 -0.125 0
-0.625 -0.125 0
-0.75 0 0
-0.625 0 0
-0.625 -0.125 0
-0.5 -0.125 0
-0.625 0 0
-0.5 0 0
-0.5 -0.25 0
-0.375 -0.25 0
-0.5 -0.125 0
-0.375 -0.125 0
-0.375 -0.25 0
-0.25 -0.25 0
-0.375 -0.125 0
-0.25 -0.125 0
-0.25 -1 0
-0.125 -1 0
-0.25 -0.875 0
-0.125 -0.875 0
-0.125 -1 0
0 -1 0
-0.125 -0.875 0
0 -0.875 0
-0.25 -0.875 0
-0.125 -0.875 0
-0.25 -0.75 0
-0.125 -0.75 0
-0.125 -0.875 0
0 -0.875 0
-0.125 -0.75 0
0 -0.75 0
-0.5 -0.75 0
-0.375 -0.75 0
-0.5 -0.625 0
-0.375 -0.625 0
-0.375 -0.75 0
-0.25 -0.75 0
-0.375 -0.625 0
-0.25 -0.625 0
-0.5 -0.625 0
-0.375 -0.625 0
-0.5 -0.5 0
-0.375 -0.5 0
-0.375 -0.625 0
-0.25 -0.625 0
-0.375 -0.5 0
-0.25 -0.5 0
0 -0.75 0
0.125 -0.75 0
0 -0.625 0
0.125 -0.625 0
0.125 -0.75 0
0.25 -0.75 0
0.125 -0.625 0
0.25 -0.625 0
0.125 -0.625 0
0.25 -0.625 0
0.125 -0.5 0
0.25 -0.5 0
0.125 -0.5 0
0.25 -0.5 0
0.125 -0.375 0
0.25 -0.375 0
0 -0.375 0
0.125 -0.375 0
0 -0.25 0
0.125 -0.25 0
0.125 -0.375 0
0.25 -0.375 0
0.125 -0.25 0
0.25 -0.25 0
0.125 -0.25 0
0.25 -0.25 0
0.125 -0.125 0
0.25 -0.125 0
0.125 -0.125 0
0.25 -0.125 0
0.125 0 0
0.25 0 0
-0.25 -0.75 0
-0.125 -0.75 0
-0.25 -0.625 0
-0.125 -0.625 0
-0.125 -0.75 0
0 -0.75 0
-0.125 -0.625 0
0 -0.625 0
-0.25 -0.625 0
-0.125 -0.625 0
-0.25 -0.5 0
-0.125 -0.5 0
-0.125 -0.625 0
0 -0.625 0
-0.125 -0.5 0
0 -0.5 0
-0.25 -0.5 0
-0.125 -0.5 0
-0.25 -0.375 0
-0.125 -0.375 0
-0.125 -0.5 0
0 -0.5 0
-0.125 -0.375 0
0 -0.375 0
-0.25 -0.375 0
-0.125 -0.375 0
-0.25 -0.25 0
-0.125 -0.25 0
-0.125 -0.375 0
0 -0.375 0
-0.125 -0.25 0
0 -0.25 0
0 -1 0
0.125 -1 0
0 -0.875 0
0.125 -0.875 0
0.125 -1 0
0.25 -1 0
0.125 -0.875 0
0.25 -0.875 0
0 -0.875 0
0.125 -0.875 0
0 -0.75 0
0.125 -0.75 0
0.125 -0.875 0
0.25 -0.875 0
0.125 -0.75 0
0.25 -0.75 0
0.25 -0.75 0
0.375 -0.75 0
0.25 -0.625 0
0.375 -0.625 0
0.375 -0.75 0
0.5 -0.75 0
0.375 -0.625 0
0.5 -0.625 0
0.25 -0.625 0
0.375 -0.625 0
0.25 -0.5 0
0.375 -0.5 0
0.375 -0.625 0
0.5 -0.625 0
0.375 -0.5 0
0.5 -0.5 0
0.5 -0.75 0
0.625 -0.75 0
0.5 -0.625 0
0.625 -0.625 0
0.625 -0.75 0
0.75 -0.75 0
0.625 -0.625 0
0.75 -0.625 0
0.75 -0.75 0
0.875 -0.75 0
0.75 -0.625 0
0.875 -0.625 0
0.875 -0.75 0
1 -0.75 0
0.875 -0.625 0
1 -0.625 0
0.875 -0.625 0
1 -0.625 0
0.875 -0.5 0
1 -0.5 0
0.25 -0.5 0
0.375 -0.5 0
0.25 -0.375 0
0.375 -0.375 0
-0.25 -0.25 0
-0.125 -0.25 0
-0.25 -0.125 0
-0.125 -0.125 0
-0.125 -0.25 0
0 -0.25 0
-0.125 -0.125 0
0 -0.125 0
-0.75 0 0
-0.625 0 0
-0.75 0.125 0
-0.625 0.125 0
-0.75 0.125 0
-0.625 0.125 0
-0.75 0.25 0
-0.625 0.25 0
-1 0.25 0
-0.875 0.25 0
-1 0.375 0
-0.875 0.375 0
-0.875 0.25 0
-0.75 0.25 0
-0.875 0.375 0
-0.75 0.375 0
-1 0.375 0
-0.875 0.375 0
-1 0.5 0
-0.875 0.5 0
-0.375 0 0
-0.25 0 0
-0.375 0.125 0
-0.25 0.125 0
-0.25 0 0
-0.125 0 0
-0.25 0.125 0
-0.125 0.125 0
0.25 -0.25 0
0.375 -0.25 0
0.25 -0.125 0
0.375 -0.125 0
0.25 -0.125 0
0.375 -0.125 0
0.25 0 0
0.375 0 0
0.375 -0.125 0
0.5 -0.125 0
0.375 0 0
0.5 0 0
0.875 -0.5 0
1 -0.5 0
0.875 -0.375 0
1 -0.375 0
0.75 -0.375 0
0.875 -0.375 0
0.75 -0.25 0
0.875 -0.25 0
0.875 -0.375 0
1 -0.375 0
0.875 -0.25 0
1 -0.25 0
0.625 -0.25 0
0.75 -0.25 0
0.625 -0.125 0
0.75 -0.125 0
0.5 -0.125 0
0.625 -0.125 0
0.5 0 0
0.625 0 0
0.625 -0.125 0
0.75 -0.125 0
0.625 0 0
0.75 0 0
-1 0.625 0
-0.875 0.625 0
-1 0.75 0
-0.875 0.75 0
-1 0.875 0
-0.875 0.875 0
-1 1 0
-0.875 1 0
-0.5625 0.25 0
-0.5 0.25 0
-0.5625 0.3125 0
-0.5 0.3125 0
-0.625 0.3125 0
-0.5625 0.3125 0
-0.625 0.375 0
-0.5625 0.375 0
-0.5625 0.3125 0
-0.5 0.3125 0
-0.5625 0.375 0
-0.5 0.375 0
-0.6875 0.375 0
-0.625 0.375 0
-0.6875 0.4375 0
-0.625 0.4375 0
-0.75 0.4375 0
-0.6875 0.4375 0
-0.75 0.5 0
-0.6875 0.5 0
-0.6875 0.4375 0
-0.625 0.4375 0
-0.6875 0.5 0
-0.625 0.5 0
-0.625 0.375 0
-0.5625 0.375 0
-0.625 0.4375 0
-0.5625 0.4375 0
-0.5625 0.375 0
-0.5 0.375 0
-0.5625 0.4375 0
-0.5 0.4375 0
-0.625 0.4375 0
-0.5625 0.4375 0
-0.625 0.5 0
-0.5625 0.5 0
-0.5625 0.4375 0
-0.5 0.4375 0
-0.5625 0.5 0
-0.5 0.5 0
-0.25 0.125 0
-0.1875 0.125 0
-0.25 0.1875 0
-0.1875 0.1875 0
-0.1875 0.125 0
-0.125 0.125 0
-0.1875 0.1875 0
-0.125 0.1875 0
-0.25 0.1875 0
-0.1875 0.1875 0
-0.25 0.25 0
-0.1875 0.25 0
-0.1875 0.1875 0
-0.125 0.1875 0
-0.1875 0.25 0
-0.125 0.25 0
-0.875 0.625 0
-0.8125 0.625 0
-0.875 0.6875 0
-0.8125 0.6875 0
-0.8125 0.625 0
-0.75 0.625 0
-0.8125 0.6875 0
-0.75 0.6875 0
-0.875 0.6875 0
-0.8125 0.6875 0
-0.875 0.75 0
-0.8125 0.75 0
-0.8125 0.6875 0
-0.75 0.6875 0
-0.8125 0.75 0
-0.75 0.75 0
-0.875 0.75 0
-0.8125 0.75 0
-0.875 0.8125 0
-0.8125 0.8125 0
-0.8125 0.75 0
-0.75 0.75 0
-0.8125 0.8125 0
-0.75 0.8125 0
-0.8125 0.8125 0
-0.75 0.8125 0
-0.8125 0.875 0
-0.75 0.875 0
-0.5 -0.125 0
-0.4375 -0.125 0
-0.5 -0.0625 0
-0.4375 -0.0625 0
-0.4375 -0.125 0
-0.375 -0.125 0
-0.4375 -0.0625 0
-0.375 -0.0625 0
-0.5 -0.0625 0
-0.4375 -0.0625 0
-0.5 0 0
-0.4375 0 0
-0.4375 -0.0625 0
-0.375 -0.0625 0
-0.4375 0 0
-0.375 0 0
-0.375 -0.125 0
-0.3125 -0.125 0
-0.375 -0.0625 0
-0.3125 -0.0625 0
-0.3125 -0.125 0
-0.25 -0.125 0
-0.3125 -0.0625 0
-0.25 -0.0625 0
-0.375 -0.0625 0
-0.3125 -0.0625 0
-0.375 0 0
-0.3125 0 0
-0.3125 -0.0625 0
-0.25 -0.0625 0
-0.3125 0 0
-0.25 0 0
0 -0.625 0
0.0625 -0.625 0
0 -0.5625 0
0.0625 -0.5625 0
0.0625 -0.625 0
0.125 -0.625 0
0.0625 -0.5625 0
0.125 -0.5625 0
0 -0.5625 0
0.0625 -0.5625 0
0 -0.5 0
0.0625 -0.5 0
0.0625 -0.5625 0
0.125 -0.5625 0
0.0625 -0.5 0
0.125 -0.5 0
0 -0.5 0
0.0625 -0.5 0
0 -0.4375 0
0.0625 -0.4375 0
0.0625 -0.5 0
0.125 -0.5 0
0.0625 -0.4375 0
0.125 -0.4375 0
0 -0.4375 0
0.0625 -0.4375 0
0 -0.375 0
0.0625 -0.375 0
0.0625 -0.4375 0
0.125 -0.4375 0
0.0625 -0.375 0
0.125 -0.375 0
0 -0.25 0
0.0625 -0.25 0
0 -0.1875 0
0.0625 -0.1875 0
0.0625 -0.25 0
0.125 -0.25 0
0.0625 -0.1875 0
0.125 -0.1875 0
0 -0.1875 0
0.0625 -0.1875 0
0 -0.125 0
0.0625 -0.125 0
0.0625 -0.1875 0
0.125 -0.1875 0
0.0625 -0.125 0
0.125 -0.125 0
0 -0.125 0
0.0625 -0.125 0
0 -0.0625 0
0.0625 -0.0625 0
0.0625 -0.125 0
0.125 -0.125 0
0.0625 -0.0625 0
0.125 -0.0625 0
0 -0.0625 0
0.0625 -0.0625 0
0 0 0
0.0625 0 0
0.0625 -0.0625 0
0.125 -0.0625 0
0.0625 0 0
0.125 0 0
0.5 -0.625 0
0.5625 -0.625 0
0.5 -0.5625 0
0.5625 -0.5625 0
0.5625 -0.625 0
0.625 -0.625 0
0.5625 -0.5625 0
0.625 -0.5625 0
0.5 -0.5625 0
0.5625 -0.5625 0
0.5 -0.5 0
0.5625 -0.5 0
0.5625 -0.5625 0
0.625 -0.5625 0
0.5625 -0.5 0
0.625 -0.5 0
0.625 -0.625 0
0.6875 -0.625 0
0.625 -0.5625 0
0.6875 -0.5625 0
0.6875 -0.625 0
0.75 -0.625 0
0.6875 -0.5625 0
0.75 -0.5625 0
0.625 -0.5625 0
0.6875 -0.5625 0
0.625 -0.5 0
0.6875 -0.5 0
0.6875 -0.5625 0
0.75 -0.5625 0
0.6875 -0.5 0
0.75 -0.5 0
-0.625 0 0
-0.5625 0 0
-0.625 0.0625 0
-0.5625 0.0625 0
-0.5625 0 0
-0.5 0 0
-0.5625 0.0625 0
-0.5 0.0625 0
-0.625 0.0625 0
-0.5625 0.0625 0
-0.625 0.125 0
-0.5625 0.125 0
-0.5625 0.0625 0
-0.5 0.0625 0
-0.5625 0.125 0
-0.5 0.125 0
0.75 -0.625 0
0.8125 -0.625 0
0.75 -0.5625 0
0.8125 -0.5625 0
0.8125 -0.625 0
0.875 -0.625 0
0.8125 -0.5625 0
0.875 -0.5625 0
0.75 -0.5625 0
0.8125 -0.5625 0
0.75 -0.5 0
0.8125 -0.5 0
0.8125 -0.5625 0
0.875 -0.5625 0
0.8125 -0.5 0
0.875 -0.5 0
-0.625 0.125 0
-0.5625 0.125 0
-0.625 0.1875 0
-0.5625 0.1875 0
-0.625 0.1875 0
-0.5625 0.1875 0
-0.625 0.25 0
-0.5625 0.25 0
0.375 -0.5 0
0.4375 -0.5 0
0.375 -0.4375 0
0.4375 -0.4375 0
0.4375 -0.5 0
0.5 -0.5 0
0.4375 -0.4375 0
0.5 -0.4375 0
0.375 -0.4375 0
0.4375 -0.4375 0
0.375 -0.375 0
0.4375 -0.375 0
0.4375 -0.4375 0
0.5 -0.4375 0
0.4375 -0.375 0
0.5 -0.375 0
0.25 -0.375 0
0.3125 -0.375 0
0.25 -0.3125 0
0.3125 -0.3125 0
0.3125 -0.375 0
0.375 -0.375 0
0.3125 -0.3125 0
0.375 -0.3125 0
0.25 -0.3125 0
0.3125 -0.3125 0
0.25 -0.25 0
0.3125 -0.25 0
0.3125 -0.3125 0
0.375 -0.3125 0
0.3125 -0.25 0
0.375 -0.25 0
-0.875 0.375 0
-0.8125 0.375 0
-0.875 0.4375 0
-0.8125 0.4375 0
-0.8125 0.375 0
-0.75 0.375 0
-0.8125 0.4375 0
-0.75 0.4375 0
-0.875 0.4375 0
-0.8125 0.4375 0
-0.875 0.5 0
-0.8125 0.5 0
-0.75 0.25 0
-0.6875 0.25 0
-0.75 0.3125 0
-0.6875 0.3125 0
-0.6875 0.25 0
-0.625 0.25 0
-0.6875 0.3125 0
-0.625 0.3125 0
-0.75 0.3125 0
-0.6875 0.3125 0
-0.75 0.375 0
-0.6875 0.375 0
-0.6875 0.3125 0
-0.625 0.3125 0
-0.6875 0.375 0
-0.625 0.375 0
-0.5 0 0
-0.4375 0 0
-0.5 0.0625 0
-0.4375 0.0625 0
-0.4375 0 0
-0.375 0 0
-0.4375 0.0625 0
-0.375 0.0625 0
-0.5 0.0625 0
-0.4375 0.0625 0
-0.5 0.125 0
-0.4375 0.125 0
-0.4375 0.0625 0
-0.375 0.0625 0
-0.4375 0.125 0
-0.375 0.125 0
0.375 -0.375 0
0.4375 -0.375 0
0.375 -0.3125 0
0.4375 -0.3125 0
0.4375 -0.375 0
0.5 -0.375 0
0.4375 -0.3125 0
0.5 -0.3125 0
0.375 -0.3125 0
0.4375 -0.3125 0
0.375 -0.25 0
0.4375 -0.25 0
0.4375 -0.3125 0
0.5 -0.3125 0
0.4375 -0.25 0
0.5 -0.25 0
-0.25 -0.125 0
-0.1875 -0.125 0
-0.25 -0.0625 0
-0.1875 -0.0625 0
-0.1875 -0.125 0
-0.125 -0.125 0
-0.1875 -0.0625 0
-0.125 -0.0625 0
-0.25 -0.0625 0
-0.1875 -0.0625 0
-0.25 0 0
-0.1875 0 0
-0.1875 -0.0625 0
[...]
  <PointData Scalars="scalars">
    <DataArray type="Float32" Name="U" format="ascii">
0 0 0 8.9543e-05 0 0 8.9543e-05 0.000207536 0 8.9543e-05 0 0.000165091 8.9543e-05 0.000207536 0.000165091 0.000353797 0 0 0.000207536 0.000390876 0 0.000165091 0 0.000226101 0.000165091 0.000353797 0.000226101 0.000445587 0 0.000226101 0 0.000365614 0.000353797 0.000620027 0.000445587 0.000631965 0 0 0.0009703 0.00105674 0 0 0.00105674 0.000715956 0 0 0.000715956 0 0.000759848 0 0 0 0 0.000365614 0 0.00103109 0.000226101 0.000335844 0.000295857 0.000413536 0.000335844 0.000445587 0.000413536 0.000527985 0.000295857 0.000413536 0.000365614 0.000598393 0.000413536 0.000527985 0.000598393 0.000776177 0.000445587 0.000538776 0.000527985 0.000613222 0.000538776 0.000631965 0.000613222 0.000629118 0 0 0.000195438 0.000273902 0 0 0.000273902 0.000353634 0.000195438 0.000273902 0.000390876 0.000517341 0.000273902 0.000353634 0.000517341 0.000665353 0.000207536 0.000299206 0.000280666 0.000400538 0.000299206 0.000390876 0.000400538 0.000536371 0.000280666 0.000400538 0.000353797 0.000486912 0.000400538 0.000536371 0.000486912 0.000620027 0.000665353 0.000818675 0.000891943 0.00109668 0.000818675 0.0009703 0.00109668 0.00127415 0.00109668 0.00127415 0.00121977 0.00141109 0.00121977 0.00141109 0.00115952 0.00133465 0.000968844 0.00115952 0.000803422 0.00092155 0.00115952 0.00133465 0.00092155 0.00104379 0.00092155 0.00104379 0.000523245 0.000573017 0.000523245 0.000573017 0 0 0.000390876 0.000517341 0.000536371 0.000700011 0.000517341 0.000665353 0.000700011 0.000891943 0.000536371 0.000700011 0.000620027 0.000793719 0.000700011 0.000891943 0.000793719 0.00100222 0.000620027 0.000793719 0.000625996 0.000792823 0.000793719 0.00100222 0.000792823 0.000968844 0.000625996 0.000792823 0.000631965 0.000706641 0.000792823 0.000968844 0.000706641 0.000803422 0 0 0.000353634 0.000435248 0 0 0.000435248 0.00048515 0.000353634 0.000435248 0.000665353 0.000818675 0.000435248 0.00048515 0.000818675 0.0009703 0.0009703 0.00101352 0.00127415 0.00138427 0.00101352 0.00105674 0.00138427 0.00137495 0.00127415 0.00138427 0.00141109 0.00153019 0.00138427 0.00137495 0.00153019 0.00151739 0.00105674 0.000886346 0.00137495 0.00122641 0.000886346 0.000715956 0.00122641 0.00092297 0.000715956 0.000357978 0.00092297 0.000501091 0.000357978 0 0.000501091 0 0.000501091 0 0.000551102 0 0.00141109 0.00153019 0.00133465 0.00143662 0.000631965 0.000706641 0.000629118 0.000582055 0.000706641 0.000803422 0.000582055 0.000517753 0.000365614 0.000598393 0.000698354 0.00100246 0.000698354 0.00100246 0.00103109 0.00189724 0 0.000515547 0 0.000719415 0.000515547 0.00103109 0.000719415 0.0017786 0 0.000719415 0 0.00101111 0.000856536 0.000802745 0.00160776 0.00148042 0.000802745 0.000549729 0.00148042 0.000900035 0.00104379 0.00111686 0.000573017 0.00061417 0.000573017 0.00061417 0 0 0.00061417 0.000605595 0 0 0.000551102 0 0.000517961 0 0.000958002 0.000517961 0.000759848 0.000379924 0.000517961 0 0.000379924 0 0.000984861 0.000759848 0.000539547 0.000379924 0.000605595 0.000539547 0 0 0.000539547 0.000379924 0 0 0 0.00118156 0 0.00108374 0 0.000655572 0 0 0.00237517 0.00281898 0.00327052 0.00394427 0.00258377 0.00327052 0.0034203 0.00439325 0.00327052 0.00394427 0.00439325 0.00535954 0.00253136 0.0034203 0.00317574 0.00435172 0.00221293 0.00317574 0.00262436 0.00381808 0.00317574 0.00435172 0.00381808 0.0052869 0.0034203 0.00439325 0.00435172 0.00567197 0.00439325 0.00535954 0.00567197 0.00700906 0.00435172 0.00567197 0.0052869 0.00697762 0.00567197 0.00700906 0.00697762 0.00870911 0.00148042 0.00119023 0.0021392 0.00180417 0.00119023 0.000900035 0.00180417 0.00130284 0.0021392 0.00180417 0.00316657 0.00267614 0.00180417 0.00130284 0.00267614 0.00194607 0.00118156 0.00200734 0.00113265 0.00201509 0.00200734 0.00316154 0.00201509 0.00318521 0.00113265 0.00201509 0.00108374 0.00187387 0.00201509 0.00318521 0.00187387 0.00297357 0.00108374 0.00187387 0.000917318 0.00158315 0.00187387 0.00297357 0.00158315 0.00251749 0.00158315 0.00251749 0.00114496 0.00183004 0.000527985 0.000570603 0.000652081 0.000674574 0.000570603 0.000613222 0.000674574 0.000696354 0.000652081 0.000674574 0.000776177 0.000848657 0.000674574 0.000696354 0.000848657 0.000856536 0.000613222 0.00062117 0.000696354 0.000697017 0.00062117 0.000629118 0.000697017 0.000671315 0.000696354 0.000697017 0.000856536 0.00082964 0.000697017 0.000671315 0.00082964 0.000802745 0.000891943 0.00099431 0.00094708 0.00106483 0.00099431 0.00109668 0.00106483 0.00115822 0.00094708 0.00106483 0.00100222 0.00109974 0.00106483 0.00115822 0.00109974 0.00121977 0.00100222 0.00109974 0.00098553 0.00110047 0.00109974 0.00121977 0.00110047 0.00118965 0.00098553 0.00110047 0.000968844 0.00106418 0.00110047 0.00118965 0.00106418 0.00115952 0.000803422 0.000862486 0.000660587 0.000697568 0.000862486 0.00092155 0.000697568 0.000722398 0.000660587 0.000697568 0.000517753 0.000504158 0.000697568 0.000722398 0.000504158 0.000523245 0.000517753 0.000504158 0.000327211 0.000269617 0.000504158 0.000523245 0.000269617 0.000261623 0.000327211 0.000269617 0 0 0.000269617 0.000261623 0 0 0.00137495 0.00130068 0.00144617 0.00140345 0.00130068 0.00122641 0.00140345 0.0013046 0.00144617 0.00140345 0.00151739 0.00144711 0.00140345 0.0013046 0.00144711 0.00134527 0.00122641 0.00107469 0.0013046 0.00116291 0.00107469 0.00092297 0.00116291 0.000984059 0.0013046 0.00116291 0.00134527 0.00119905 0.00116291 0.000984059 0.00119905 0.00101488 0.000598393 0.000687285 0.000800426 0.000906601 0.000687285 0.000776177 0.000906601 0.00102889 0.000800426 0.000906601 0.00100246 0.00123339 0.000906601 0.00102889 0.00123339 0.00141394 0.00092297 0.000712031 0.000984059 0.000770944 0.000712031 0.000501091 0.000770944 0.000526096 0.000984059 0.000770944 0.00101488 0.000793995 0.000770944 0.000526096 0.000793995 0.000551102 0.00100246 0.00123339 0.00144985 0.00169951 0.00144985 0.00169951 0.00189724 0.00237517 0.00153019 0.00152379 0.0014834 0.00151498 0.00152379 0.00151739 0.00151498 0.00149505 0.0014834 0.00151498 0.00143662 0.0014412 0.00151498 0.00149505 0.0014412 0.00142177 0.00133465 0.00138563 0.00118922 0.00126206 0.00138563 0.00143662 0.00126206 0.00129926 0.00118922 0.00126206 0.00104379 0.00108033 0.00126206 0.00129926 0.00108033 0.00111686 0.000719415 0.00124901 0.000865262 0.00145711 0.00124901 0.0017786 0.00145711 0.00221293 0.000865262 0.00145711 0.00101111 0.0017012 0.00103109 0.00146417 0.00140485 0.00194498 0.00146417 0.00189724 0.00194498 0.00258377 0.00140485 0.00194498 0.0017786 0.00253136 0.00194498 0.00258377 0.00253136 0.0034203 0.000776177 0.000848657 0.00102889 0.00112391 0.000848657 0.000856536 0.00112391 0.00123215 0.00102889 0.00112391 0.00141394 0.00155804 0.00112391 0.00123215 0.00155804 0.00160776 0.00143662 0.0014412 0.00129926 0.00130768 0.0014412 0.00142177 0.00130768 0.00128821 0.00129926 0.00130768 0.00111686 0.00112033 0.00130768 0.00128821 0.00112033 0.00110392 0.000629118 0.000605587 0.000671315 0.000618891 0.000605587 0.000582055 0.000618891 0.000537557 0.000671315 0.000618891 0.000802745 0.000676237 0.000618891 0.000537557 0.000676237 0.000549729 0.000480792 0 0.000687169 0 0.000687169 0 0.001022 0 0 0.000505555 0 0.000529724 0.000505555 0.00101111 0.000529724 0.00113617 0 0.000529724 0 0.000590779 0.000529724 0.00113617 0.000590779 0.00118156 0.000582055 0.000549904 0.000537557 0.000426095 0.000549904 0.000517753 0.000426095 0.000327211 0.000537557 0.000426095 0.000549729 0.000355585 0.000426095 0.000327211 0.000355585 0 0 0.000541868 0 0.000423542 0.000541868 0.00108374 0.000423542 0.000917318 0 0.000423542 0 0.000327786 0.000423542 0.000917318 0.000327786 0.000655572 0.000655572 0.00114496 0.000327786 0.000599939 0.000327786 0.000599939 0 0 0.000599939 0.000961016 0 0 0.000549729 0.000355585 0.000724882 0.000367465 0.000355585 0 0.000367465 0 0.000724882 0.000367465 0.000900035 0.000480792 0.000367465 0 0.000480792 0 0.00111686 0.00112033 0.000865517 0.000883882 0.00112033 0.00110392 0.000883882 0.000870989 0.000865517 0.000883882 0.00061417 0.000609883 0.000883882 0.000870989 0.000609883 0.000605595 0.00151739 0.00144711 0.00149505 0.00143234 0.00144711 0.00134527 0.00143234 0.00133102 0.00149505 0.00143234 0.00142177 0.00136269 0.00143234 0.00133102 0.00136269 0.00126635 0.00134527 0.00119905 0.00133102 0.00118588 0.00119905 0.00101488 0.00118588 0.00100389 0.00133102 0.00118588 0.00126635 0.00112847 0.00118588 0.00100389 0.00112847 0.000958002 0.00142177 0.00136269 0.00128821 0.00123399 0.00136269 0.00126635 0.00123399 0.00114735 0.00128821 0.00123399 0.00110392 0.00105694 0.00123399 0.00114735 0.00105694 0.000984861 0.00126635 0.00112847 0.00114735 0.00102371 0.00112847 0.000958002 0.00102371 0.000858925 0.00114735 0.00102371 0.000984861 0.000872355 0.00102371 0.000858925 0.000872355 0.000759848 0.00101488 0.000793995 0.00100389 0.000785009 0.000793995 0.000551102 0.000785009 0.000534532 0.00100389 0.000785009 0.000958002 0.000737981 0.000785009 0.000534532 0.000737981 0.000517961 0.00110392 0.00105694 0.000870989 0.00083303 0.00105694 0.000984861 0.00083303 0.000762204 0.000870989 0.00083303 0.000605595 0.000572571 0.00083303 0.000762204 0.000572571 0.000539547 0.00160776 0.00154409 0.00231315 0.0023132 0.00154409 0.00148042 0.0023132 0.0021392 0.00231315 0.0023132 0.00338157 0.0033989 0.0023132 0.0021392 0.0033989 0.00316657 0.00281898 0.00317829 0.00394427 0.0045132 0.00317829 0.00338157 0.0045132 0.00485134 0.001022 0 0.00150044 0 0.00150044 0 0.00214488 0 0.00262436 0.00381808 0.00296445 0.00436646 0.00296445 0.00436646 0.00316154 0.0046961 0.000961016 0.00145679 0 0 0.00145679 0.00211373 0 0 0.0150521 0.0141899 0.0152326 0.014365 0.0141899 0.012994 0.014365 0.0131538 0.0152326 0.014365 0.0150382 0.0141854 0.014365 0.0131538 0.0141854 0.0129985 0.0150428 0.0152272 0.0141796 0.0143584 0.0141796 0.0143584 0.0129835 0.0131467 0.0152272 0.0150359 0.0143584 0.0141816 0.0143584 0.0141816 0.0131467 0.0129939 0.00394427 0.00422873 0.0046519 0.00498928 0.00422873 0.0045132 0.00498928 0.00530284 0.0046519 0.00498928 0.00535954 0.0057907 0.0045132 0.00468227 0.00530284 0.00555788 0.00468227 0.00485134 0.00555788 0.0057444 0.00530284 0.00555788 0.00619919 0.00652072 0.00555788 0.0057444 0.00652072 0.00673703 0.00189724 0.0021362 0.0022405 0.00252197 0.0021362 0.00237517 0.00252197 0.00282284 0.0022405 0.00252197 0.00258377 0.00292714 0.00252197 0.00282284 0.00292714 0.00327052 0.0017786 0.00215498 0.00199577 0.00241515 0.00215498 0.00253136 0.00241515 0.00285355 0.00199577 0.00241515 0.00221293 0.00269434 0.00241515 0.00285355 0.00269434 0.00317574 0.0057444 0.00583628 0.00673703 0.00687491 0.00583628 0.00583344 0.00687491 0.00686656 0.00583344 0.0057139 0.00686656 0.00675493 0.0057139 0.00548647 0.00675493 0.00647753 0.00535954 0.0057907 0.0061843 0.00671461 0.0061843 0.00671461 0.00700906 0.00760363 0.00671461 0.00713776 0.00760363 0.00819388 0.00700906 0.00760363 0.00785908 0.0085956 0.00760363 0.00819388 0.0085956 0.00917712 0.00785908 0.0085956 0.00870911 0.00949124 0.0085956 0.00917712 0.00949124 0.0102371 0.000917318 0.00125023 0.000786445 0.00106958 0.00125023 0.00158315 0.00106958 0.00136405 0.000786445 0.00106958 0.000655572 0.000900264 0.00106958 0.00136405 0.000900264 0.00114496 0.00123339 0.00132367 0.00146645 0.0015727 0.00132367 0.00141394 0.0015727 0.0016817 0.00146645 0.0015727 0.00169951 0.00184846 0.0015727 0.0016817 0.00184846 0.00198294 0.00548647 0.00513646 0.00647753 0.00609053 0.00513646 0.00467332 0.00609053 0.00553018 0.00467332 0.0041021 0.00553018 0.00487132 0.0041021 0.0034074 0.00487132 0.00405947 0.00214488 0.00107244 0.00250274 0.00128162 0.00107244 0 0.00128162 0 0.00250274 0.00128162 0.00290493 0.00147124 0.00128162 0 0.00147124 0 0.00290493 0.00147124 0.0033179 0.0016872 0.00147124 0 0.0016872 0 0.0033179 0.0016872 0.00372337 0.00187686 0.0016872 0 0.00187686 0 0.00381808 0.00455249 0.00409227 0.00487955 0.00455249 0.0052869 0.00487955 0.00570576 0.00409227 0.00487955 0.00436646 0.00518395 0.0054905 0.00427801 0.00621331 0.00484248 0.00427801 0.00290493 0.00484248 0.0033179 0.00621331 0.00484248 0.00700624 0.00544816 0.00484248 0.0033179 0.00544816 0.00372337 0.00436646 0.00518395 0.00453128 0.00543306 0.00518395 0.00610487 0.00543306 0.00641923 0.00453128 0.00543306 0.0046961 0.00561541 0.00543306 0.00641923 0.00561541 0.00663153 0.0052869 0.00613226 0.00570576 0.00665108 0.00613226 0.00697762 0.00665108 0.00755963 0.00665108 0.00755963 0.00706489 0.00813967 0.00697762 0.00784336 0.00755963 0.00856808 0.00784336 0.00870911 0.00856808 0.00947862 0.00755963 0.00856808 0.00813967 0.00913983 0.00856808 0.00947862 0.00913983 0.010214 0.00169951 0.00184846 0.00203734 0.00220694 0.00184846 0.00198294 0.00220694 0.00237728 0.00203734 0.00220694 0.00237517 0.00259707 0.00220694 0.00237728 0.00259707 0.00281898 0.00561541 0.00663153 0.00570623 0.00676695 0.00570623 0.00676695 0.00570459 0.00675944 0.00145711 0.00183502 0.00157915 0.00198426 0.00183502 0.00221293 0.00198426 0.00241865 0.00157915 0.00198426 0.0017012 0.0021391 0.00198426 0.00241865 0.0021391 0.00262436 0.00570459 0.00675944 0.00558942 0.00665016 0.00558942 0.00665016 0.00536845 0.00637815 0.00141394 0.00148599 0.0016817 0.00177598 0.00148599 0.00155804 0.00177598 0.00185888 0.0016817 0.00177598 0.00198294 0.00209786 0.00177598 0.00185888 0.00209786 0.00220324 0.00536845 0.00637815 0.00502734 0.00599796 0.00502734 0.00599796 0.00457508 0.00544706 0.00155804 0.0015829 0.00185888 0.00191274 0.0015829 0.00160776 0.00191274 0.00196046 0.00185888 0.00191274 0.00220324 0.00227516 0.00191274 0.00196046 0.00227516 0.00231315 0.00457508 0.00544706 0.00401668 0.00479881 0.00401668 0.00479881 0.00333676 0.00399958 0.00211373 0.00247633 0.00105686 0.00126824 0.00247633 0.00288265 0.00126824 0.00145995 0.00105686 0.00126824 0 0 0.00126824 0.00145995 0 0 0.00288265 0.00329922 0.00145995 0.00167775 0.00329922 0.00370788 0.00167775 0.00186902 0.00145995 0.00167775 0 0 0.00167775 0.00186902 0 0 0.0152992 0.0151517 0.0157562 0.0155507 0.0157562 0.0155507 0.0159044 0.0157079 0.0155507 0.0150521 0.0157079 0.0152326 0.0152895 0.0157519 0.0151393 0.0155434 0.0157519 0.0159044 0.0155434 0.0157048 0.0155434 0.0157048 0.0150428 0.0152272 0.0157079 0.0152326 0.0155232 0.0150382 0.0157048 0.0155232 0.0152272 0.0150359 0.00198294 0.00209786 0.00237728 0.00252559 0.00209786 0.00220324 0.00252559 0.00266083 0.00237728 0.00252559 0.00281898 0.00299863 0.00252559 0.00266083 0.00299863 0.00317829 0.00220324 0.00227516 0.00266083 0.00275765 0.00227516 0.00231315 0.00275765 0.00284736 0.00266083 0.00275765 0.00317829 0.00327993 0.00275765 0.00284736 0.00327993 0.00338157 0.000900035 0.000690414 0.00110144 0.000845788 0.000690414 0.000480792 0.000845788 0.00058398 0.00110144 0.000845788 0.00130284 0.00101117 0.000845788 0.00058398 0.00101117 0.000687169 0.00130284 0.00101117 0.00162446 0.00124704 0.00101117 0.000687169 0.00124704 0.000854583 0.00162446 0.00124704 0.00194607 0.00150219 0.00124704 0.000854583 0.00150219 0.001022 0.00101111 0.00135615 0.00107364 0.00143031 0.00135615 0.0017012 0.00143031 0.00180713 0.00107364 0.00143031 0.00113617 0.00150115 0.00143031 0.00180713 0.00150115 0.00190241 0.0017012 0.0021391 0.00180713 0.00227901 0.0021391 0.00262436 0.00227901 0.0027944 0.00180713 0.00227901 0.00190241 0.0024059 0.00227901 0.0027944 0.0024059 0.00296445 0.00113617 0.00150115 0.00115887 0.00155109 0.00150115 0.00190241 0.00155109 0.00196974 0.00115887 0.00155109 0.00118156 0.00159445 0.00155109 0.00196974 0.00159445 0.00200734 0.00190241 0.0024059 0.00196974 0.00249838 0.0024059 0.00296445 0.00249838 0.003063 0.00196974 0.00249838 0.00200734 0.00258444 0.00249838 0.003063 0.00258444 0.00316154 0.00129927 0 0.000877701 0 0.00129922 0.000877688 0 0 0.00170727 0.000877701 0.000877688 0.00044821 0.000877701 0 0.00044821 0 0.000877688 0.00044821 0 0 0.00044821 0 0 0 0.00114496 0.0014875 0.000872447 0.00113795 0.0014875 0.00183004 0.00113795 0.00141235 0.000872447 0.00113795 0.000599939 0.000780478 0.00113795 0.00141235 0.000780478 0.000961016 0.00338157 0.00339023 0.00411645 0.00413048 0.00339023 0.0033989 0.00413048 0.0041169 0.00411645 0.00413048 0.00485134 0.00490034 0.00413048 0.0041169 0.00490034 0.00490338 0.0033989 0.00328273 0.0041169 0.00400398 0.00328273 0.00316657 0.00400398 0.00384853 0.0041169 0.00400398 0.00490338 0.00477216 0.00400398 0.00384853 0.00477216 0.00459674 0.00316657 0.00292136 0.00384853 0.00357728 0.00292136 0.00267614 0.00357728 0.00326354 0.00384853 0.00357728 0.00459674 0.00427503 0.00357728 0.00326354 0.00427503 0.00390689 0.00267614 0.00231111 0.00326354 0.0028395 0.00231111 0.00194607 0.0028395 0.00238305 0.00326354 0.0028395 0.00390689 0.00340154 0.0028395 0.00238305 0.00340154 0.00285497 0.00544803 0.00617805 0.00424512 0.00481506 0.00617805 0.0069772 0.00481506 0.00542533 0.00424512 0.00481506 0.00288265 0.00329922 0.00481506 0.00542533 0.00329922 0.00370788 0.00316154 0.00392882 0.00317337 0.00394564 0.00392882 0.0046961 0.00394564 0.00474524 0.00317337 0.00394564 0.00318521 0.00393543 0.00394564 0.00474524 0.00393543 0.00475043 0.00318521 0.00393543 0.00307939 0.00383019 0.00393543 0.00475043 0.00383019 0.00462538 0.00307939 0.00383019 0.00297357 0.00368388 0.00383019 0.00462538 0.00368388 0.00445727 0.00297357 0.00368388 0.00274553 0.00342626 0.00368388 0.00445727 0.00342626 0.00414701 0.00274553 0.00342626 0.00251749 0.00312719 0.00342626 0.00414701 0.00312719 0.00379123 0.00251749 0.00312719 0.00217376 0.00272159 0.00312719 0.00379123 0.00272159 0.00330165 0.00217376 0.00272159 0.00183004 0.00228436 0.00272159 0.00330165 0.00228436 0.00277184 0.0102371 0.0108468 0.0111901 0.0118446 0.0108468 0.0112682 0.0118446 0.0123663 0.0111901 0.0118446 0.0120554 0.0127927 0.0118446 0.0123663 0.0127927 0.013332 0.010214 0.0111797 0.0108152 0.0118256 0.0111797 0.0120554 0.0118256 0.0127839 0.0108152 0.0118256 0.0112305 0.0123405 0.0118256 0.0127839 0.0123405 0.0133164 0.0120554 0.0127927 0.0127839 0.013552 0.0127927 0.013332 0.013552 0.0141898 0.0127839 0.013552 0.0133164 0.014183 0.00194607 0.00150219 0.00238305 0.00182257 0.00150219 0.001022 0.00182257 0.00126122 0.00238305 0.00182257 0.00285497 0.00222178 0.00182257 0.00126122 0.00222178 0.00150044 0.0112682 0.0115667 0.0123663 0.0126397 0.0115667 0.0115884 0.0126397 0.0127667 0.0123663 0.0126397 0.013332 0.0136978 0.00222178 0.00150044 0.00264614 0.00182266 0.00264614 0.00182266 0.00315597 0.00214488 0.0112305 0.0123405 0.0115242 0.012609 0.0123405 0.0133164 0.012609 0.0136767 0.0115242 0.012609 0.0115435 0.012733 0.011025 0.0104219 0.0121708 0.0114228 0.0104219 0.00948776 0.0114228 0.0104692 0.0121708 0.0114228 0.0131174 0.0123744 0.0114228 0.0104692 0.0123744 0.0113404 0.00948776 0.00838218 0.0104692 0.00921454 0.00838218 0.00700624 0.00921454 0.00772394 0.00187686 0 0.00209706 0 0.00411615 0.00209706 0.00445297 0.00228052 0.0109795 0.012129 0.0103744 0.0114005 0.012129 0.0130831 0.0114005 0.0123639 0.0103744 0.0114005 0.00944482 0.0104448 0.00944482 0.0104448 0.00834831 0.00918287 0.00834831 0.00918287 0.0069772 0.00770147 0.00183004 0.00228436 0.00141235 0.00174674 0.00228436 0.00277184 0.00174674 0.00215729 0.00141235 0.00174674 0.000961016 0.0012089 0.00174674 0.00215729 0.0012089 0.00145679 0.00215729 0.00259171 0.00145679 0.00178526 0.00259171 0.00310971 0.00178526 0.00211373 0.00410343 0.00444266 0.0020906 0.00227529 0.00186902 0.0020906 0 0 0.0146694 0.0142414 0.0148843 0.0145397 0.0142414 0.0138179 0.0145397 0.0140251 0.0148843 0.0145397 0.0150521 0.014621 0.0145397 0.0140251 0.014621 0.0141899 0.0138179 0.0132416 0.0140251 0.0135276 0.0132416 0.0126773 0.0135276 0.0128522 0.0140251 0.0135276 0.0141899 0.0135919 0.0135276 0.0128522 0.0135919 0.012994 0.00498928 0.00514606 0.00538999 0.00558212 0.00514606 0.00530284 0.00558212 0.00575101 0.00538999 0.00558212 0.0057907 0.00599738 0.00558212 0.00575101 0.00599738 0.00619919 0.00485134 0.00487584 0.00529787 0.00534359 0.00487584 0.00490