# vtk DataFile Version 3.0
#This file was generated by the deal.II library on 2021/4/23 at 0:45:38
ASCII
DATASET UNSTRUCTURED_GRID

FIELD FieldData 2
CYCLE 1 1 int
4
TIME 1 1 double
0.008
POINTS 240 double
-1 -1 0
-0.75 -1 0
-1 -0.75 0
-0.75 -0.75 0
-0.75 -1 0
-0.5 -1 0
-0.75 -0.75 0
-0.5 -0.75 0
-1 -0.75 0
-0.75 -0.75 0
-1 -0.5 0
-0.75 -0.5 0
-0.75 -0.75 0
-0.5 -0.75 0
-0.75 -0.5 0
-0.5 -0.5 0
-0.5 -1 0
-0.25 -1 0
-0.5 -0.75 0
-0.25 -0.75 0
-0.25 -1 0
0 -1 0
-0.25 -0.75 0
0 -0.75 0
-0.5 -0.75 0
-0.25 -0.75 0
-0.5 -0.5 0
-0.25 -0.5 0
-0.25 -0.75 0
0 -0.75 0
-0.25 -0.5 0
0 -0.5 0
-1 -0.5 0
-0.75 -0.5 0
-1 -0.25 0
-0.75 -0.25 0
-0.75 -0.5 0
-0.5 -0.5 0
-0.75 -0.25 0
-0.5 -0.25 0
-1 -0.25 0
-0.75 -0.25 0
-1 0 0
-0.75 0 0
-0.75 -0.25 0
-0.5 -0.25 0
-0.75 0 0
-0.5 0 0
-0.5 -0.5 0
-0.25 -0.5 0
-0.5 -0.25 0
-0.25 -0.25 0
-0.25 -0.5 0
0 -0.5 0
-0.25 -0.25 0
0 -0.25 0
-0.5 -0.25 0
-0.25 -0.25 0
-0.5 0 0
-0.25 0 0
-0.25 -0.25 0
0 -0.25 0
-0.25 0 0
0 0 0
0 -1 0
0.25 -1 0
0 -0.75 0
0.25 -0.75 0
0.25 -1 0
0.5 -1 0
0.25 -0.75 0
0.5 -0.75 0
0 -0.75 0
0.25 -0.75 0
0 -0.5 0
0.25 -0.5 0
0.25 -0.75 0
0.5 -0.75 0
0.25 -0.5 0
0.5 -0.5 0
0.5 -1 0
0.75 -1 0
0.5 -0.75 0
0.75 -0.75 0
0.75 -1 0
1 -1 0
0.75 -0.75 0
1 -0.75 0
0.5 -0.75 0
0.75 -0.75 0
0.5 -0.5 0
0.75 -0.5 0
0.75 -0.75 0
1 -0.75 0
0.75 -0.5 0
1 -0.5 0
0 -0.5 0
0.25 -0.5 0
0 -0.25 0
0.25 -0.25 0
0.25 -0.5 0
0.5 -0.5 0
0.25 -0.25 0
0.5 -0.25 0
0 -0.25 0
0.25 -0.25 0
0 0 0
0.25 0 0
0.25 -0.25 0
0.5 -0.25 0
0.25 0 0
0.5 0 0
-1 0 0
-0.75 0 0
-1 0.25 0
-0.75 0.25 0
-0.75 0 0
-0.5 0 0
-0.75 0.25 0
-0.5 0.25 0
-1 0.25 0
-0.75 0.25 0
-1 0.5 0
-0.75 0.5 0
-0.75 0.25 0
-0.5 0.25 0
-0.75 0.5 0
-0.5 0.5 0
-0.5 0 0
-0.25 0 0
-0.5 0.25 0
-0.25 0.25 0
-0.25 0 0
0 0 0
-0.25 0.25 0
0 0.25 0
-0.5 0.25 0
-0.25 0.25 0
-0.5 0.5 0
-0.25 0.5 0
-0.25 0.25 0
0 0.25 0
-0.25 0.5 0
0 0.5 0
-1 0.5 0
-0.75 0.5 0
-1 0.75 0
-0.75 0.75 0
-0.75 0.5 0
-0.5 0.5 0
-0.75 0.75 0
-0.5 0.75 0
-1 0.75 0
-0.75 0.75 0
-1 1 0
-0.75 1 0
-0.75 0.75 0
-0.5 0.75 0
-0.75 1 0
-0.5 1 0
-0.5 0.5 0
-0.25 0.5 0
-0.5 0.75 0
-0.25 0.75 0
-0.25 0.5 0
0 0.5 0
-0.25 0.75 0
0 0.75 0
-0.5 0.75 0
-0.25 0.75 0
-0.5 1 0
-0.25 1 0
-0.25 0.75 0
0 0.75 0
-0.25 1 0
0 1 0
0.5 -0.5 0
0.625 -0.5 0
0.5 -0.375 0
0.625 -0.375 0
0.625 -0.5 0
0.75 -0.5 0
0.625 -0.375 0
0.75 -0.375 0
0.5 -0.375 0
0.625 -0.375 0
0.5 -0.25 0
0.625 -0.25 0
0.625 -0.375 0
0.75 -0.375 0
0.625 -0.25 0
0.75 -0.25 0
0.75 -0.5 0
0.875 -0.5 0
0.75 -0.375 0
0.875 -0.375 0
0.875 -0.5 0
1 -0.5 0
0.875 -0.375 0
1 -0.375 0
0.75 -0.375 0
0.875 -0.375 0
0.75 -0.25 0
0.875 -0.25 0
0.875 -0.375 0
1 -0.375 0
0.875 -0.25 0
1 -0.25 0
0.5 -0.25 0
0.625 -0.25 0
0.5 -0.125 0
0.625 -0.125 0
0.625 -0.25 0
0.75 -0.25 0
0.625 -0.125 0
0.75 -0.125 0
0.5 -0.125 0
0.625 -0.125 0
0.5 0 0
0.625 0 0
0.625 -0.125 0
0.75 -0.125 0
0.625 0 0
0.75 0 0
0.75 -0.25 0
0.875 -0.25 0
0.75 -0.125 0
0.875 -0.125 0
0.875 -0.25 0
1 -0.25 0
0.875 -0.125 0
1 -0.125 0
0.75 -0.125 0
0.875 -0.125 0
0.75 0 0
0.875 0 0
0.875 -0.125 0
1 -0.125 0
0.875 0 0
1 0 0

CELLS 60 300
4	0	1	3	2
4	4	5	7	6
4	8	9	11	10
4	12	13	15	14
4	16	17	19	18
4	20	21	23	22
4	24	25	27	26
4	28	29	31	30
4	32	33	35	34
4	36	37	39	38
4	40	41	43	42
4	44	45	47	46
4	48	49	51	50
4	52	53	55	54
4	56	57	59	58
4	60	61	63	62
4	64	65	67	66
4	68	69	71	70
4	72	73	75	74
4	76	77	79	78
4	80	81	83	82
4	84	85	87	86
4	88	89	91	90
4	92	93	95	94
4	96	97	99	98
4	100	101	103	102
4	104	105	107	106
4	108	109	111	110
4	112	113	115	114
4	116	117	119	118
4	120	121	123	122
4	124	125	127	126
4	128	129	131	130
4	132	133	135	134
4	136	137	139	138
4	140	141	143	142
4	144	145	147	146
4	148	149	151	150
4	152	153	155	154
4	156	157	159	158
4	160	161	163	162
4	164	165	167	166
4	168	169	171	170
4	172	173	175	174
4	176	177	179	178
4	180	181	183	182
4	184	185	187	186
4	188	189	191	190
4	192	193	195	194
4	196	197	199	198
4	200	201	203	202
4	204	205	207	206
4	208	209	211	210
4	212	213	215	214
4	216	217	219	218
4	220	221	223	222
4	224	225	227	226
4	228	229	231	230
4	232	233	235	234
4	236	237	239	238

CELL_TYPES 60
 9 9 9 9 9 9 9 9 9 9 9 9 9 9 9 9 9 9 9 9 9 9 9 9 9 9 9 9 9 9 9 9 9 9 9 9 9 9 9 9 9 9 9 9 9 9 9 9 9 9 9 9 9 9 9 9 9 9 9 9
POINT_DATA 240
SCALARS U double 1
LOOKUP_TABLE default
0 0 0 2.55594e-09 0 0 2.55594e-09 -9.65252e-08 0 2.55594e-09 0 1.46351e-07 2.55594e-09 -9.65252e-08 1.46351e-07 -1.32815e-07 0 0 -9.65252e-08 8.67731e-07 0 0 8.67731e-07 -5.91716e-06 -9.65252e-08 8.67731e-07 -1.32815e-07 -2.53431e-06 8.67731e-07 -5.91716e-06 -2.53431e-06 2.74674e-05 0 1.46351e-07 0 1.59097e-07 1.46351e-07 -1.32815e-07 1.59097e-07 5.25424e-07 0 1.59097e-07 0 9.3671e-08 1.59097e-07 5.25424e-07 9.3671e-08 -3.3995e-07 -1.32815e-07 -2.53431e-06 5.25424e-07 -9.33861e-06 -2.53431e-06 2.74674e-05 -9.33861e-06 7.6821e-05 5.25424e-07 -9.33861e-06 -3.3995e-07 8.63334e-07 -9.33861e-06 7.6821e-05 8.63334e-07 0 0 0 -5.91716e-06 3.5643e-05 0 0 3.5643e-05 -0.000200677 -5.91716e-06 3.5643e-05 2.74674e-05 -0.000203139 3.5643e-05 -0.000200677 -0.000203139 0.00130525 0 0 -0.000200677 -0.00051042 0 0 -0.00051042 0 -0.000200677 -0.00051042 0.00130525 0.0031751 -0.00051042 0 0.0031751 0 2.74674e-05 -0.000203139 7.6821e-05 -0.000519466 -0.000203139 0.00130525 -0.000519466 0.00317507 7.6821e-05 -0.000519466 0 0 -0.000519466 0.00317507 0 0 0 9.3671e-08 0 -1.99753e-08 9.3671e-08 -3.3995e-07 -1.99753e-08 6.99684e-08 0 -1.99753e-08 0 4.21311e-09 -1.99753e-08 6.99684e-08 4.21311e-09 -1.42218e-08 -3.3995e-07 8.63334e-07 6.99684e-08 -1.71307e-07 8.63334e-07 0 -1.71307e-07 0 6.99684e-08 -1.71307e-07 -1.42218e-08 3.34535e-08 -1.71307e-07 0 3.34535e-08 0 0 4.21311e-09 0 -8.4929e-10 4.21311e-09 -1.42218e-08 -8.4929e-10 2.75166e-09 0 -8.4929e-10 0 0 -8.4929e-10 2.75166e-09 0 0 -1.42218e-08 3.34535e-08 2.75166e-09 -6.20632e-09 3.34535e-08 0 -6.20632e-09 0 2.75166e-09 -6.20632e-09 0 0 -6.20632e-09 0 0 0 0.00130525 0.00224018 0.00224016 0.0056851 0.00224018 0.0031751 0.0056851 0.00585513 0.00224016 0.0056851 0.00317507 0.00585603 0.0056851 0.00585513 0.00585603 0.00633421 0.0031751 0.00158755 0.00585513 0.00558222 0.00158755 0 0.00558222 0 0.00585513 0.00558222 0.00633421 0.00580431 0.00558222 0 0.00580431 0 0.00317507 0.00585603 0.00158753 0.00558275 0.00585603 0.00633421 0.00558275 0.00580426 0.00158753 0.00558275 0 0 0.00558275 0.00580426 0 0 0.00633421 0.00580431 0.00580426 0.00549765 0.00580431 0 0.00549765 0 0.00580426 0.00549765 0 0 0.00549765 0 0 0 
