<?xml version="1.0" ?> 
<!-- 
# vtk DataFile Version 3.0
#This file was generated by the deal.II library on 21:45:18 at 2021/4/29
-->
<VTKFile type="UnstructuredGrid" version="0.1" byte_order="LittleEndian">
<UnstructuredGrid>
<Piece NumberOfPoints="65536" NumberOfCells="16384" >
  <Points>
    <DataArray type="Float32" NumberOfComponents="3" format="ascii">
-1 -1 0
-0.984375 -1 0
-1 -0.984375 0
-0.984375 -0.984375 0
-0.984375 -1 0
-0.96875 -1 0
-0.984375 -0.984375 0
-0.96875 -0.984375 0
-1 -0.984375 0
-0.984375 -0.984375 0
-1 -0.96875 0
-0.984375 -0.96875 0
-0.984375 -0.984375 0
-0.96875 -0.984375 0
-0.984375 -0.96875 0
-0.96875 -0.96875 0
-0.96875 -1 0
-0.953125 -1 0
-0.96875 -0.984375 0
-0.953125 -0.984375 0
-0.953125 -1 0
-0.9375 -1 0
-0.953125 -0.984375 0
-0.9375 -0.984375 0
-0.96875 -0.984375 0
-0.953125 -0.984375 0
-0.96875 -0.96875 0
-0.953125 -0.96875 0
-0.953125 -0.984375 0
-0.9375 -0.984375 0
-0.953125 -0.96875 0
-0.9375 -0.96875 0
-1 -0.96875 0
-0.984375 -0.96875 0
-1 -0.953125 0
-0.984375 -0.953125 0
-0.984375 -0.96875 0
-0.96875 -0.96875 0
-0.984375 -0.953125 0
-0.96875 -0.953125 0
-1 -0.953125 0
-0.984375 -0.953125 0
-1 -0.9375 0
-0.984375 -0.9375 0
-0.984375 -0.953125 0
-0.96875 -0.953125 0
-0.984375 -0.9375 0
-0.96875 -0.9375 0
-0.96875 -0.96875 0
-0.953125 -0.96875 0
-0.96875 -0.953125 0
-0.953125 -0.953125 0
-0.953125 -0.96875 0
-0.9375 -0.96875 0
-0.953125 -0.953125 0
-0.9375 -0.953125 0
-0.96875 -0.953125 0
-0.953125 -0.953125 0
-0.96875 -0.9375 0
-0.953125 -0.9375 0
-0.953125 -0.953125 0
-0.9375 -0.953125 0
-0.953125 -0.9375 0
-0.9375 -0.9375 0
-0.9375 -1 0
-0.921875 -1 0
-0.9375 -0.984375 0
-0.921875 -0.984375 0
-0.921875 -1 0
-0.90625 -1 0
-0.921875 -0.984375 0
-0.90625 -0.984375 0
-0.9375 -0.984375 0
-0.921875 -0.984375 0
-0.9375 -0.96875 0
-0.921875 -0.96875 0
-0.921875 -0.984375 0
-0.90625 -0.984375 0
-0.921875 -0.96875 0
-0.90625 -0.96875 0
-0.90625 -1 0
-0.890625 -1 0
-0.90625 -0.984375 0
-0.890625 -0.984375 0
-0.890625 -1 0
-0.875 -1 0
-0.890625 -0.984375 0
-0.875 -0.984375 0
-0.90625 -0.984375 0
-0.890625 -0.984375 0
-0.90625 -0.96875 0
-0.890625 -0.96875 0
-0.890625 -0.984375 0
-0.875 -0.984375 0
-0.890625 -0.96875 0
-0.875 -0.96875 0
-0.9375 -0.96875 0
-0.921875 -0.96875 0
-0.9375 -0.953125 0
-0.921875 -0.953125 0
-0.921875 -0.96875 0
-0.90625 -0.96875 0
-0.921875 -0.953125 0
-0.90625 -0.953125 0
-0.9375 -0.953125 0
-0.921875 -0.953125 0
-0.9375 -0.9375 0
-0.921875 -0.9375 0
-0.921875 -0.953125 0
-0.90625 -0.953125 0
-0.921875 -0.9375 0
-0.90625 -0.9375 0
-0.90625 -0.96875 0
-0.890625 -0.96875 0
-0.90625 -0.953125 0
-0.890625 -0.953125 0
-0.890625 -0.96875 0
-0.875 -0.96875 0
-0.890625 -0.953125 0
-0.875 -0.953125 0
-0.90625 -0.953125 0
-0.890625 -0.953125 0
-0.90625 -0.9375 0
-0.890625 -0.9375 0
-0.890625 -0.953125 0
-0.875 -0.953125 0
-0.890625 -0.9375 0
-0.875 -0.9375 0
-1 -0.9375 0
-0.984375 -0.9375 0
-1 -0.921875 0
-0.984375 -0.921875 0
-0.984375 -0.9375 0
-0.96875 -0.9375 0
-0.984375 -0.921875 0
-0.96875 -0.921875 0
-1 -0.921875 0
-0.984375 -0.921875 0
-1 -0.90625 0
-0.984375 -0.90625 0
-0.984375 -0.921875 0
-0.96875 -0.921875 0
-0.984375 -0.90625 0
-0.96875 -0.90625 0
-0.96875 -0.9375 0
-0.953125 -0.9375 0
-0.96875 -0.921875 0
-0.953125 -0.921875 0
-0.953125 -0.9375 0
-0.9375 -0.9375 0
-0.953125 -0.921875 0
-0.9375 -0.921875 0
-0.96875 -0.921875 0
-0.953125 -0.921875 0
-0.96875 -0.90625 0
-0.953125 -0.90625 0
-0.953125 -0.921875 0
-0.9375 -0.921875 0
-0.953125 -0.90625 0
-0.9375 -0.90625 0
-1 -0.90625 0
-0.984375 -0.90625 0
-1 -0.890625 0
-0.984375 -0.890625 0
-0.984375 -0.90625 0
-0.96875 -0.90625 0
-0.984375 -0.890625 0
-0.96875 -0.890625 0
-1 -0.890625 0
-0.984375 -0.890625 0
-1 -0.875 0
-0.984375 -0.875 0
-0.984375 -0.890625 0
-0.96875 -0.890625 0
-0.984375 -0.875 0
-0.96875 -0.875 0
-0.96875 -0.90625 0
-0.953125 -0.90625 0
-0.96875 -0.890625 0
-0.953125 -0.890625 0
-0.953125 -0.90625 0
-0.9375 -0.90625 0
-0.953125 -0.890625 0
-0.9375 -0.890625 0
-0.96875 -0.890625 0
-0.953125 -0.890625 0
-0.96875 -0.875 0
-0.953125 -0.875 0
-0.953125 -0.890625 0
-0.9375 -0.890625 0
-0.953125 -0.875 0
-0.9375 -0.875 0
-0.9375 -0.9375 0
-0.921875 -0.9375 0
-0.9375 -0.921875 0
-0.921875 -0.921875 0
-0.921875 -0.9375 0
-0.90625 -0.9375 0
-0.921875 -0.921875 0
-0.90625 -0.921875 0
-0.9375 -0.921875 0
-0.921875 -0.921875 0
-0.9375 -0.90625 0
-0.921875 -0.90625 0
-0.921875 -0.921875 0
-0.90625 -0.921875 0
-0.921875 -0.90625 0
-0.90625 -0.90625 0
-0.90625 -0.9375 0
-0.890625 -0.9375 0
-0.90625 -0.921875 0
-0.890625 -0.921875 0
-0.890625 -0.9375 0
-0.875 -0.9375 0
-0.890625 -0.921875 0
-0.875 -0.921875 0
-0.90625 -0.921875 0
-0.890625 -0.921875 0
-0.90625 -0.90625 0
-0.890625 -0.90625 0
-0.890625 -0.921875 0
-0.875 -0.921875 0
-0.890625 -0.90625 0
-0.875 -0.90625 0
-0.9375 -0.90625 0
-0.921875 -0.90625 0
-0.9375 -0.890625 0
-0.921875 -0.890625 0
-0.921875 -0.90625 0
-0.90625 -0.90625 0
-0.921875 -0.890625 0
-0.90625 -0.890625 0
-0.9375 -0.890625 0
-0.921875 -0.890625 0
-0.9375 -0.875 0
-0.921875 -0.875 0
-0.921875 -0.890625 0
-0.90625 -0.890625 0
-0.921875 -0.875 0
-0.90625 -0.875 0
-0.90625 -0.90625 0
-0.890625 -0.90625 0
-0.90625 -0.890625 0
-0.890625 -0.890625 0
-0.890625 -0.90625 0
-0.875 -0.90625 0
-0.890625 -0.890625 0
-0.875 -0.890625 0
-0.90625 -0.890625 0
-0.890625 -0.890625 0
-0.90625 -0.875 0
-0.890625 -0.875 0
-0.890625 -0.890625 0
-0.875 -0.890625 0
-0.890625 -0.875 0
-0.875 -0.875 0
-0.875 -1 0
-0.859375 -1 0
-0.875 -0.984375 0
-0.859375 -0.984375 0
-0.859375 -1 0
-0.84375 -1 0
-0.859375 -0.984375 0
-0.84375 -0.984375 0
-0.875 -0.984375 0
-0.859375 -0.984375 0
-0.875 -0.96875 0
-0.859375 -0.96875 0
-0.859375 -0.984375 0
-0.84375 -0.984375 0
-0.859375 -0.96875 0
-0.84375 -0.96875 0
-0.84375 -1 0
-0.828125 -1 0
-0.84375 -0.984375 0
-0.828125 -0.984375 0
-0.828125 -1 0
-0.8125 -1 0
-0.828125 -0.984375 0
-0.8125 -0.984375 0
-0.84375 -0.984375 0
-0.828125 -0.984375 0
-0.84375 -0.96875 0
-0.828125 -0.96875 0
-0.828125 -0.984375 0
-0.8125 -0.984375 0
-0.828125 -0.96875 0
-0.8125 -0.96875 0
-0.875 -0.96875 0
-0.859375 -0.96875 0
-0.875 -0.953125 0
-0.859375 -0.953125 0
-0.859375 -0.96875 0
-0.84375 -0.96875 0
-0.859375 -0.953125 0
-0.84375 -0.953125 0
-0.875 -0.953125 0
-0.859375 -0.953125 0
-0.875 -0.9375 0
-0.859375 -0.9375 0
-0.859375 -0.953125 0
-0.84375 -0.953125 0
-0.859375 -0.9375 0
-0.84375 -0.9375 0
-0.84375 -0.96875 0
-0.828125 -0.96875 0
-0.84375 -0.953125 0
-0.828125 -0.953125 0
-0.828125 -0.96875 0
-0.8125 -0.96875 0
-0.828125 -0.953125 0
-0.8125 -0.953125 0
-0.84375 -0.953125 0
-0.828125 -0.953125 0
-0.84375 -0.9375 0
-0.828125 -0.9375 0
-0.828125 -0.953125 0
-0.8125 -0.953125 0
-0.828125 -0.9375 0
-0.8125 -0.9375 0
-0.8125 -1 0
-0.796875 -1 0
-0.8125 -0.984375 0
-0.796875 -0.984375 0
-0.796875 -1 0
-0.78125 -1 0
-0.796875 -0.984375 0
-0.78125 -0.984375 0
-0.8125 -0.984375 0
-0.796875 -0.984375 0
-0.8125 -0.96875 0
-0.796875 -0.96875 0
-0.796875 -0.984375 0
-0.78125 -0.984375 0
-0.796875 -0.96875 0
-0.78125 -0.96875 0
-0.78125 -1 0
-0.765625 -1 0
-0.78125 -0.984375 0
-0.765625 -0.984375 0
-0.765625 -1 0
-0.75 -1 0
-0.765625 -0.984375 0
-0.75 -0.984375 0
-0.78125 -0.984375 0
-0.765625 -0.984375 0
-0.78125 -0.96875 0
-0.765625 -0.96875 0
-0.765625 -0.984375 0
-0.75 -0.984375 0
-0.765625 -0.96875 0
-0.75 -0.96875 0
-0.8125 -0.96875 0
-0.796875 -0.96875 0
-0.8125 -0.953125 0
-0.796875 -0.953125 0
-0.796875 -0.96875 0
-0.78125 -0.96875 0
-0.796875 -0.953125 0
-0.78125 -0.953125 0
-0.8125 -0.953125 0
-0.796875 -0.953125 0
-0.8125 -0.9375 0
-0.796875 -0.9375 0
-0.796875 -0.953125 0
-0.78125 -0.953125 0
-0.796875 -0.9375 0
-0.78125 -0.9375 0
-0.78125 -0.96875 0
-0.765625 -0.96875 0
-0.78125 -0.953125 0
-0.765625 -0.953125 0
-0.765625 -0.96875 0
-0.75 -0.96875 0
-0.765625 -0.953125 0
-0.75 -0.953125 0
-0.78125 -0.953125 0
-0.765625 -0.953125 0
-0.78125 -0.9375 0
-0.765625 -0.9375 0
-0.765625 -0.953125 0
-0.75 -0.953125 0
-0.765625 -0.9375 0
-0.75 -0.9375 0
-0.875 -0.9375 0
-0.859375 -0.9375 0
-0.875 -0.921875 0
-0.859375 -0.921875 0
-0.859375 -0.9375 0
-0.84375 -0.9375 0
-0.859375 -0.921875 0
-0.84375 -0.921875 0
-0.875 -0.921875 0
-0.859375 -0.921875 0
-0.875 -0.90625 0
-0.859375 -0.90625 0
-0.859375 -0.921875 0
-0.84375 -0.921875 0
-0.859375 -0.90625 0
-0.84375 -0.90625 0
-0.84375 -0.9375 0
-0.828125 -0.9375 0
-0.84375 -0.921875 0
-0.828125 -0.921875 0
-0.828125 -0.9375 0
-0.8125 -0.9375 0
-0.828125 -0.921875 0
-0.8125 -0.921875 0
-0.84375 -0.921875 0
-0.828125 -0.921875 0
-0.84375 -0.90625 0
-0.828125 -0.90625 0
-0.828125 -0.921875 0
-0.8125 -0.921875 0
-0.828125 -0.90625 0
-0.8125 -0.90625 0
-0.875 -0.90625 0
-0.859375 -0.90625 0
-0.875 -0.890625 0
-0.859375 -0.890625 0
-0.859375 -0.90625 0
-0.84375 -0.90625 0
-0.859375 -0.890625 0
-0.84375 -0.890625 0
-0.875 -0.890625 0
-0.859375 -0.890625 0
-0.875 -0.875 0
-0.859375 -0.875 0
-0.859375 -0.890625 0
-0.84375 -0.890625 0
-0.859375 -0.875 0
-0.84375 -0.875 0
-0.84375 -0.90625 0
-0.828125 -0.90625 0
-0.84375 -0.890625 0
-0.828125 -0.890625 0
-0.828125 -0.90625 0
-0.8125 -0.90625 0
-0.828125 -0.890625 0
-0.8125 -0.890625 0
-0.84375 -0.890625 0
-0.828125 -0.890625 0
-0.84375 -0.875 0
-0.828125 -0.875 0
-0.828125 -0.890625 0
-0.8125 -0.890625 0
-0.828125 -0.875 0
-0.8125 -0.875 0
-0.8125 -0.9375 0
-0.796875 -0.9375 0
-0.8125 -0.921875 0
-0.796875 -0.921875 0
-0.796875 -0.9375 0
-0.78125 -0.9375 0
-0.796875 -0.921875 0
-0.78125 -0.921875 0
-0.8125 -0.921875 0
-0.796875 -0.921875 0
-0.8125 -0.90625 0
-0.796875 -0.90625 0
-0.796875 -0.921875 0
-0.78125 -0.921875 0
-0.796875 -0.90625 0
-0.78125 -0.90625 0
-0.78125 -0.9375 0
-0.765625 -0.9375 0
-0.78125 -0.921875 0
-0.765625 -0.921875 0
-0.765625 -0.9375 0
-0.75 -0.9375 0
-0.765625 -0.921875 0
-0.75 -0.921875 0
-0.78125 -0.921875 0
-0.765625 -0.921875 0
-0.78125 -0.90625 0
-0.765625 -0.90625 0
-0.765625 -0.921875 0
-0.75 -0.921875 0
-0.765625 -0.90625 0
-0.75 -0.90625 0
-0.8125 -0.90625 0
-0.796875 -0.90625 0
-0.8125 -0.890625 0
-0.796875 -0.890625 0
-0.796875 -0.90625 0
[...]
  <PointData Scalars="scalars">
    <DataArray type="Float32" Name="U" format="ascii">
0 0 0 1.31e-05 0 0 1.31e-05 2.70013e-05 0 1.31e-05 0 2.36821e-05 1.31e-05 2.70013e-05 2.36821e-05 4.70082e-05 0 0 2.70013e-05 4.1794e-05 0 0 4.1794e-05 5.87634e-05 2.70013e-05 4.1794e-05 4.70082e-05 7.11855e-05 4.1794e-05 5.87634e-05 7.11855e-05 9.46222e-05 0 2.36821e-05 0 3.34307e-05 2.36821e-05 4.70082e-05 3.34307e-05 6.90958e-05 0 3.34307e-05 0 3.2701e-05 3.34307e-05 6.90958e-05 3.2701e-05 6.60841e-05 4.70082e-05 7.11855e-05 6.90958e-05 0.000107665 7.11855e-05 9.46222e-05 0.000107665 0.000152655 6.90958e-05 0.000107665 6.60841e-05 9.97696e-05 0.000107665 0.000152655 9.97696e-05 0.000135564 0 0 5.87634e-05 7.69766e-05 0 0 7.69766e-05 9.75635e-05 5.87634e-05 7.69766e-05 9.46222e-05 0.00012072 7.69766e-05 9.75635e-05 0.00012072 0.000147631 0 0 9.75635e-05 0.000117983 0 0 0.000117983 0.000138561 9.75635e-05 0.000117983 0.000147631 0.000182312 0.000117983 0.000138561 0.000182312 0.000223653 9.46222e-05 0.00012072 0.000152655 0.000202225 0.00012072 0.000147631 0.000202225 0.000260247 0.000152655 0.000202225 0.000135564 0.000172981 0.000202225 0.000260247 0.000172981 0.000215605 0.000147631 0.000182312 0.000260247 0.000320045 0.000182312 0.000223653 0.000320045 0.000384981 0.000260247 0.000320045 0.000215605 0.00026571 0.000320045 0.000384981 0.00026571 0.000329224 0 3.2701e-05 0 3.13479e-05 3.2701e-05 6.60841e-05 3.13479e-05 6.33579e-05 0 3.13479e-05 0 4.21575e-05 3.13479e-05 6.33579e-05 4.21575e-05 8.68678e-05 6.60841e-05 9.97696e-05 6.33579e-05 0.00010269 9.97696e-05 0.000135564 0.00010269 0.000144055 6.33579e-05 0.00010269 8.68678e-05 0.000128849 0.00010269 0.000144055 0.000128849 0.00017872 0 4.21575e-05 0 3.96403e-05 4.21575e-05 8.68678e-05 3.96403e-05 8.13094e-05 0 3.96403e-05 0 1.44855e-05 3.96403e-05 8.13094e-05 1.44855e-05 2.52654e-05 8.68678e-05 0.000128849 8.13094e-05 0.000126032 0.000128849 0.00017872 0.000126032 0.000176225 8.13094e-05 0.000126032 2.52654e-05 4.73299e-05 0.000126032 0.000176225 4.73299e-05 5.8657e-05 0.000135564 0.000172981 0.000144055 0.000199662 0.000172981 0.000215605 0.000199662 0.00025733 0.000144055 0.000199662 0.00017872 0.000222883 0.000199662 0.00025733 0.000222883 0.00028229 0.000215605 0.00026571 0.00025733 0.000332666 0.00026571 0.000329224 0.000332666 0.000405298 0.00025733 0.000332666 0.00028229 0.000334878 0.000332666 0.000405298 0.000334878 0.000415727 0.00017872 0.000222883 0.000176225 0.000233072 0.000222883 0.00028229 0.000233072 0.000295915 0.000176225 0.000233072 5.8657e-05 9.24859e-05 0.000233072 0.000295915 9.24859e-05 0.000110446 0.00028229 0.000334878 0.000295915 0.000368581 0.000334878 0.000415727 0.000368581 0.000441149 0.000295915 0.000368581 0.000110446 0.000162423 0.000368581 0.000441149 0.000162423 0.000197604 0 0 0.000138561 0.000155872 0 0 0.000155872 0.000171401 0.000138561 0.000155872 0.000223653 0.000281475 0.000155872 0.000171401 0.000281475 0.000351647 0 0 0.000171401 0.000185834 0 0 0.000185834 0.000206546 0.000171401 0.000185834 0.000351647 0.000438607 0.000185834 0.000206546 0.000438607 0.000526122 0.000223653 0.000281475 0.000384981 0.000443159 0.000281475 0.000351647 0.000443159 0.000502757 0.000384981 0.000443159 0.000329224 0.000412811 0.000443159 0.000502757 0.000412811 0.000518464 0.000351647 0.000438607 0.000502757 0.000555413 0.000438607 0.000526122 0.000555413 0.00062703 0.000502757 0.000555413 0.000518464 0.000650014 0.000555413 0.00062703 0.000650014 0.000789926 0 0 0.000206546 0.000241422 0 0 0.000241422 0.00029649 0.000206546 0.000241422 0.000526122 0.000608089 0.000241422 0.00029649 0.000608089 0.000668092 0 0 0.00029649 0.00037126 0 0 0.00037126 0.000449068 0.00029649 0.00037126 0.000668092 0.000717173 0.00037126 0.000449068 0.000717173 0.000775476 0.000526122 0.000608089 0.00062703 0.00071786 0.000608089 0.000668092 0.00071786 0.00085926 0.00062703 0.00071786 0.000789926 0.000936328 0.00071786 0.00085926 0.000936328 0.00106094 0.000668092 0.000717173 0.00085926 0.00102449 0.000717173 0.000775476 0.00102449 0.00120825 0.00085926 0.00102449 0.00106094 0.00119674 0.00102449 0.00120825 0.00119674 0.00134193 0.000329224 0.000412811 0.000405298 0.000492924 0.000412811 0.000518464 0.000492924 0.000572059 0.000405298 0.000492924 0.000415727 0.000492331 0.000492924 0.000572059 0.000492331 0.000613261 0.000518464 0.000650014 0.000572059 0.000668909 0.000650014 0.000789926 0.000668909 0.000771747 0.000572059 0.000668909 0.000613261 0.000726003 0.000668909 0.000771747 0.000726003 0.000884185 0.000415727 0.000492331 0.000441149 0.000526386 0.000492331 0.000613261 0.000526386 0.000600261 0.000441149 0.000526386 0.000197604 0.000276641 0.000526386 0.000600261 0.000276641 0.000340794 0.000613261 0.000726003 0.000600261 0.000699618 0.000726003 0.000884185 0.000699618 0.000784041 0.000600261 0.000699618 0.000340794 0.000446626 0.000699618 0.000784041 0.000446626 0.000535483 0.000789926 0.000936328 0.000771747 0.000916568 0.000936328 0.00106094 0.000916568 0.00109776 0.000771747 0.000916568 0.000884185 0.00101008 0.000916568 0.00109776 0.00101008 0.00117103 0.00106094 0.00119674 0.00109776 0.00131961 0.00119674 0.00134193 0.00131961 0.00155468 0.00109776 0.00131961 0.00117103 0.00129696 0.00131961 0.00155468 0.00129696 0.00149328 0.000884185 0.00101008 0.000784041 0.000928765 0.00101008 0.00117103 0.000928765 0.00105711 0.000784041 0.000928765 0.000535483 0.000641443 0.000928765 0.00105711 0.000641443 0.000734227 0.00117103 0.00129696 0.00105711 0.00127013 0.00129696 0.00149328 0.00127013 0.0014204 0.00105711 0.00127013 0.000734227 0.000815724 0.00127013 0.0014204 0.000815724 0.00093066 0 1.44855e-05 0 -3.73096e-05 1.44855e-05 2.52654e-05 -3.73096e-05 -6.68962e-05 0 -3.73096e-05 0 -0.000101242 -3.73096e-05 -6.68962e-05 -0.000101242 -0.000201677 2.52654e-05 4.73299e-05 -6.68962e-05 -0.000106849 4.73299e-05 5.8657e-05 -0.000106849 -0.000123317 -6.68962e-05 -0.000106849 -0.000201677 -0.000299327 -0.000106849 -0.000123317 -0.000299327 -0.000395542 0 -0.000101242 0 -0.000149865 -0.000101242 -0.000201677 -0.000149865 -0.000309497 0 -0.000149865 0 -0.000204039 -0.000149865 -0.000309497 -0.000204039 -0.000393986 -0.000201677 -0.000299327 -0.000309497 -0.00044671 -0.000299327 -0.000395542 -0.00044671 -0.000612735 -0.000309497 -0.00044671 -0.000393986 -0.000607268 -0.00044671 -0.000612735 -0.000607268 -0.000776941 5.8657e-05 9.24859e-05 -0.000123317 -0.000162568 9.24859e-05 0.000110446 -0.000162568 -0.000161927 -0.000123317 -0.000162568 -0.000395542 -0.000482584 -0.000162568 -0.000161927 -0.000482584 -0.000570953 0.000110446 0.000162423 -0.000161927 -0.000200157 0.000162423 0.000197604 -0.000200157 -0.000180907 -0.000161927 -0.000200157 -0.000570953 -0.000637307 -0.000200157 -0.000180907 -0.000637307 -0.000715342 -0.000395542 -0.000482584 -0.000612735 -0.000735943 -0.000482584 -0.000570953 -0.000735943 -0.00090431 -0.000612735 -0.000735943 -0.000776941 -0.000995518 -0.000735943 -0.00090431 -0.000995518 -0.00113865 -0.000570953 -0.000637307 -0.00090431 -0.00101264 -0.000637307 -0.000715342 -0.00101264 -0.00117398 -0.00090431 -0.00101264 -0.00113865 -0.00136228 -0.00101264 -0.00117398 -0.00136228 -0.0014797 0 -0.000204039 0 -0.000239521 -0.000204039 -0.000393986 -0.000239521 -0.000478946 0 -0.000239521 0 -0.000265938 -0.000239521 -0.000478946 -0.000265938 -0.000545236 -0.000393986 -0.000607268 -0.000478946 -0.000718409 -0.000607268 -0.000776941 -0.000718409 -0.000960029 -0.000478946 -0.000718409 -0.000545236 -0.000791852 -0.000718409 -0.000960029 -0.000791852 -0.00107726 0 -0.000265938 0 -0.000295701 -0.000265938 -0.000545236 -0.000295701 -0.00057912 0 -0.000295701 0 -0.000317276 -0.000295701 -0.00057912 -0.000317276 -0.000631544 -0.000545236 -0.000791852 -0.00057912 -0.000888232 -0.000791852 -0.00107726 -0.000888232 -0.00115951 -0.00057912 -0.000888232 -0.000631544 -0.000948354 -0.000888232 -0.00115951 -0.000948354 -0.00125766 -0.000776941 -0.000995518 -0.000960029 -0.00119658 -0.000995518 -0.00113865 -0.00119658 -0.00144334 -0.000960029 -0.00119658 -0.00107726 -0.00130001 -0.00119658 -0.00144334 -0.00130001 -0.00158427 -0.00113865 -0.00136228 -0.00144334 -0.00166657 -0.00136228 -0.0014797 -0.00166657 -0.0019136 -0.00144334 -0.00166657 -0.00158427 -0.00178564 -0.00166657 -0.0019136 -0.00178564 -0.00206931 -0.00107726 -0.00130001 -0.00115951 -0.00148472 -0.00130001 -0.00158427 -0.00148472 -0.0017426 -0.00115951 -0.00148472 -0.00125766 -0.00156734 -0.00148472 -0.0017426 -0.00156734 -0.00187061 -0.00158427 -0.00178564 -0.0017426 -0.00208369 -0.00178564 -0.00206931 -0.00208369 -0.00231922 -0.0017426 -0.00208369 -0.00187061 -0.00216502 -0.00208369 -0.00231922 -0.00216502 -0.00246636 0.000197604 0.000276641 -0.000180907 -0.000218935 0.000276641 0.000340794 -0.000218935 -0.000177981 -0.000180907 -0.000218935 -0.000715342 -0.000751356 -0.000218935 -0.000177981 -0.000751356 -0.000822523 0.000340794 0.000446626 -0.000177981 -0.00020849 0.000446626 0.000535483 -0.00020849 -0.000133222 -0.000177981 -0.00020849 -0.000822523 -0.000822873 -0.00020849 -0.000133222 -0.000822873 -0.000892971 -0.000715342 -0.000751356 -0.00117398 -0.00126206 -0.000751356 -0.000822523 -0.00126206 -0.00139601 -0.00117398 -0.00126206 -0.0014797 -0.00171862 -0.00126206 -0.00139601 -0.00171862 -0.00182424 -0.000822523 -0.000822873 -0.00139601 -0.00145759 -0.000822873 -0.000892971 -0.00145759 -0.00154897 -0.00139601 -0.00145759 -0.00182424 -0.00208894 -0.00145759 -0.00154897 -0.00208894 -0.0021818 0.000535483 0.000641443 -0.000133222 -0.000135129 0.000641443 0.000734227 -0.000135129 -1.17074e-05 -0.000133222 -0.000135129 -0.000892971 -0.000845472 -0.000135129 -1.17074e-05 -0.000845472 -0.000903997 0.000734227 0.000815724 -1.17074e-05 3.46186e-05 0.000815724 0.00093066 3.46186e-05 0.000200433 -1.17074e-05 3.46186e-05 -0.000903997 -0.000788918 3.46186e-05 0.000200433 -0.000788918 -0.000835702 -0.000892971 -0.000845472 -0.00154897 -0.00160995 -0.000845472 -0.000903997 -0.00160995 -0.00167964 -0.00154897 -0.00160995 -0.0021818 -0.00242921 -0.00160995 -0.00167964 -0.00242921 -0.00244993 -0.000903997 -0.000788918 -0.00167964 -0.0017907 -0.000788918 -0.000835702 -0.0017907 -0.00181906 -0.00167964 -0.0017907 -0.00244993 -0.00259 -0.0017907 -0.00181906 -0.00259 -0.00253622 -0.0014797 -0.00171862 -0.0019136 -0.00209586 -0.00171862 -0.00182424 -0.00209586 -0.00232474 -0.0019136 -0.00209586 -0.00206931 -0.00227051 -0.00209586 -0.00232474 -0.00227051 -0.00256699 -0.00182424 -0.00208894 -0.00232474 -0.00243276 -0.00208894 -0.0021818 -0.00243276 -0.00264685 -0.00232474 -0.00243276 -0.00256699 -0.00279982 -0.00243276 -0.00264685 -0.00279982 -0.00309935 -0.00206931 -0.00227051 -0.00231922 -0.00266207 -0.00227051 -0.00256699 -0.00266207 -0.00285362 -0.00231922 -0.00266207 -0.00246636 -0.00274309 -0.00266207 -0.00285362 -0.00274309 -0.00305679 -0.00256699 -0.00279982 -0.00285362 -0.00317295 -0.00279982 -0.00309935 -0.00317295 -0.00331413 -0.00285362 -0.00317295 -0.00305679 -0.00331997 -0.00317295 -0.00331413 -0.00331997 -0.00365669 -0.0021818 -0.00242921 -0.00264685 -0.00270606 -0.00242921 -0.00244993 -0.00270606 -0.00298393 -0.00264685 -0.00270606 -0.00309935 -0.00334653 -0.00270606 -0.00298393 -0.00334653 -0.00356038 -0.00244993 -0.00259 -0.00298393 -0.00307694 -0.00259 -0.00253622 -0.00307694 -0.00344433 -0.00298393 -0.00307694 -0.00356038 -0.00375433 -0.00307694 -0.00344433 -0.00375433 -0.00382519 -0.00309935 -0.00334653 -0.00331413 -0.00361563 -0.00334653 -0.00356038 -0.00361563 -0.00376043 -0.00331413 -0.00361563 -0.00365669 -0.00389781 -0.00361563 -0.00376043 -0.00389781 -0.00424338 -0.00356038 -0.00375433 -0.00376043 -0.00407862 -0.00375433 -0.00382519 -0.00407862 -0.00426824 -0.00376043 -0.00407862 -0.00424338 -0.00445249 -0.00407862 -0.00426824 -0.00445249 -0.00480493 0 0 0.000449068 0.000518193 0 0 0.000518193 0.000564184 0.000449068 0.000518193 0.000775476 0.000874621 0.000518193 0.000564184 0.000874621 0.00102551 0 0 0.000564184 0.00061339 0 0 0.00061339 0.000675148 0.000564184 0.00061339 0.00102551 0.00119154 0.00061339 0.000675148 0.00119154 0.00134266 0.000775476 0.000874621 0.00120825 0.00135366 0.000874621 0.00102551 0.00135366 0.00148019 0.00120825 0.00135366 0.00134193 0.00157008 0.00135366 0.00148019 0.00157008 0.0018323 0.00102551 0.00119154 0.00148019 0.00161053 0.00119154 0.00134266 0.00161053 0.00181766 0.00148019 0.00161053 0.0018323 0.00213465 0.00161053 0.00181766 0.00213465 0.00235494 0 0 0.000675148 0.000772813 0 0 0.000772813 0.00086104 0.000675148 0.000772813 0.00134266 0.00145323 0.000772813 0.00086104 0.00145323 0.00160199 0 0 0.00086104 0.000943693 0 0 0.000943693 0.00101725 0.00086104 0.000943693 0.00160199 0.00178901 0.000943693 0.00101725 0.00178901 0.00201082 0.00134266 0.00145323 0.00181766 0.00209058 0.00145323 0.00160199 0.00209058 0.0023497 0.00181766 0.00209058 0.00235494 0.00256994 0.00209058 0.0023497 0.00256994 0.00281039 0.00160199 0.00178901 0.0023497 0.0025509 0.00178901 0.00201082 0.0025509 0.00272244 0.0023497 0.0025509 0.00281039 0.00320808 0.0025509 0.00272244 0.00320808 0.00364609 0.00134193 0.00157008 0.00155468 0.00176378 0.00157008 0.0018323 0.00176378 0.00197843 0.00155468 0.00176378 0.00149328 0.00170963 0.00176378 0.00197843 0.00170963 0.00201508 0.0018323 0.00213465 0.00197843 0.0022029 0.00213465 0.00235494 0.0022029 0.00256328 0.00197843 0.0022029 0.00201508 0.00231562 0.0022029 0.00256328 0.00231562 0.00258859 0.00149328 0.00170963 0.0014204 0.00163701 0.00170963 0.00201508 0.00163701 0.00174108 0.0014204 0.00163701 0.00093066 0.00102061 0.00163701 0.00174108 0.00102061 0.00122319 0.00201508 0.00231562 0.00174108 0.00194329 0.00231562 0.00258859 0.00194329 0.00208441 0.00174108 0.00194329 0.00122319 0.00135789 0.00194329 0.00208441 0.00135789 0.0016538 0.00235494 0.00256994 0.00256328 0.00295431 0.00256994 0.00281039 0.00295431 0.00339539 0.00256328 0.00295431 0.00258859 0.00283499 0.00295431 0.00339539 0.00283499 0.00306451 0.00281039 0.00320808 0.00339539 0.00365963 0.00320808 0.00364609 0.00365963 0.00393961 0.00339539 0.00365963 0.00306451 0.00344208 0.00365963 0.00393961 0.00344208 0.00377897 0.00258859 0.00283499 0.00208441 0.00237444 0.00283499 0.00306451 0.00237444 0.00263042 0.00208441 0.00237444 0.0016538 0.00178053 0.00237444 0.00263042 0.00178053 0.002054 0.00306451 0.00344208 0.00263042 0.00293687 0.00344208 0.00377897 0.00293687 0.00320648 0.00263042 0.00293687 0.002054 0.00207148 0.00293687 0.00320648 0.00207148 0.00226089 0 0 0.00101725 0.00113548 0 0 0.00113548 0.0012478 0.00101725 0.00113548 0.00201082 0.00213551 0.00113548 0.0012478 0.00213551 0.00224363 0 0 0.0012478 0.00128322 0 0 0.00128322 0.00125031 0.0012478 0.00128322 0.00224363 0.00240643 0.00128322 0.00125031 0.00240643 0.00263584 0.00201082 0.00213551 0.00272244 0.00303472 0.00213551 0.00224363 0.00303472 0.0033818 0.00272244 0.00303472 0.00364609 0.00397972 0.00303472 0.0033818 0.00397972 0.00419263 0.00224363 0.00240643 0.0033818 0.00366992 0.00240643 0.00263584 0.00366992 0.00371048 0.0033818 0.00366992 0.00419263 0.0043443 0.00366992 0.00371048 0.0043443 0.00458653 0 0 0.00125031 0.00122265 0 0 0.00122265 0.00125479 0.00125031 0.00122265 0.00263584 0.00270674 0.00122265 0.00125479 0.00270674 0.00248166 0 0 0.00125479 0.00111464 0 0 0.00111464 0.000799814 0.00125479 0.00111464 0.00248166 0.00213812 0.00111464 0.000799814 0.00213812 0.00150274 0.00263584 0.00270674 0.00371048 0.00372499 0.00270674 0.00248166 0.00372499 0.00360565 0.00371048 0.00372499 0.00458653 0.00455109 0.00372499 0.00360565 0.00455109 0.00427695 0.00248166 0.00213812 0.00360565 0.00312124 0.00213812 0.00150274 0.00312124 0.0021104 0.00360565 0.00312124 0.00427695 0.00344907 0.00312124 0.0021104 0.00344907 0.00205399 0.00364609 0.00397972 0.00393961 0.00420026 0.00397972 0.00419263 0.00420026 0.0045985 0.00393961 0.00420026 0.00377897 0.00420511 0.00420026 0.0045985 0.00420511 0.00436682 0.00419263 0.0043443 0.0045985 0.00488238 0.0043443 0.00458653 0.00488238 0.00493819 0.0045985 0.00488238 0.00436682 0.00456195 0.00488238 0.00493819 0.00456195 0.00444034 0.00377897 0.00420511 0.00320648 0.00336729 0.00420511 0.00436682 0.00336729 0.00356956 0.00320648 0.00336729 0.00226089 0.00233053 0.00336729 0.00356956 0.00233053 0.0025224 0.00436682 0.00456195 0.00356956 0.00350256 0.00456195 0.00444034 0.00350256 0.00352623 0.00356956 0.00350256 0.0025224 0.00255516 0.00350256 0.00352623 0.00255516 0.00218483 0.00458653 0.00455109 0.00493819 0.00477244 0.00455109 0.00427695 0.00477244 0.00411277 0.00493819 0.00477244 0.00444034 0.00416024 0.00477244 0.00411277 0.00416024 0.00337596 0.00427695 0.00344907 0.00411277 0.0030397 0.00344907 0.00205399 0.0030397 0.000908116 0.00411277 0.0030397 0.00337596 0.00181822 0.0030397 0.000908116 0.00181822 -0.000565547 0.00444034 0.00416024 0.00352623 0.00292752 0.00416024 0.00337596 0.00292752 0.00207225 0.00352623 0.00292752 0.00218483 0.00166746 0.00292752 0.00207225 0.00166746 0.000226075 0.00337596 0.00181822 0.00207225 0.000221172 0.00181822 -0.000565547 0.000221172 -0.00270231 0.00207225 0.000221172 0.000226075 -0.00179941 0.000221172 -0.00270231 -0.00179941 -0.00566885 0.00093066 0.00102061 0.000200433 0.000304013 0.00102061 0.00122319 0.000304013 0.000477519 0.000200433 0.000304013 -0.000835702 -0.000687235 0.000304013 0.000477519 -0.000687235 -0.000753398 0.00122319 0.00135789 0.000477519 0.000613187 0.00135789 0.0016538 0.000613187 0.000702707 0.000477519 0.000613187 -0.000753398 -0.000583268 0.000613187 0.000702707 -0.000583268 -0.000549655 -0.000835702 -0.000687235 -0.00181906 -0.00191958 -0.000687235 -0.000753398 -0.00191958 -0.00177187 -0.00181906 -0.00191958 -0.00253622 -0.00262432 -0.00191958 -0.00177187 -0.00262432 -0.002687 -0.000753398 -0.000583268 -0.00177187 -0.00179644 -0.000583268 -0.000549655 -0.00179644 -0.00155034 -0.00177187 -0.00179644 -0.002687 -0.00281635 -0.00179644 -0.00155034 -0.00281635 -0.00298056 0.0016538 0.00178053 0.000702707 0.000848411 0.00178053 0.002054 0.000848411 0.000900408 0.000702707 0.000848411 -0.000549655 -0.000267865 0.000848411 0.000900408 -0.000267865 -9.63358e-05 0.002054 0.00207148 0.000900408 0.00123748 0.00207148 0.00226089 0.00123748 0.00133455 0.000900408 0.00123748 -9.63358e-05 4.44374e-05 0.00123748 0.00133455 4.44374e-05 0.000166101 -0.000549655 -0.000267865 -0.00155034 -0.00167785 -0.000267865 -9.63358e-05 -0.00167785 -0.00148587 -0.00155034 -0.00167785 -0.00298056 -0.00291037 -0.00167785 -0.00148587 -0.00291037 -0.00300816 -9.63358e-05 4.44374e-05 -0.00148587 -0.00158434 4.44374e-05 0.000166101 -0.00158434 -0.00135287 -0.00148587 -0.00158434 -0.00300816 -0.00278277 -0.00158434 -0.00135287 -0.00278277 -0.00300991 -0.00253622 -0.00262432 -0.00344433 -0.00350135 -0.00262432 -0.002687 -0.00350135 -0.00376179 -0.00344433 -0.00350135 -0.00382519 -0.00403214 -0.00350135 -0.00376179 -0.00403214 -0.0040856 -0.002687 -0.00281635 -0.00376179 -0.00366052 -0.00281635 -0.00298056 -0.00366052 -0.00378874 -0.00376179 -0.00366052 -0.0040856 -0.00441853 -0.00366052 -0.00378874 -0.00441853 -0.00445283 -0.00382519 -0.00403214 -0.00426824 -0.00454317 -0.00403214 -0.0040856 -0.00454317 -0.00472711 -0.00426824 -0.00454317 -0.00480493 -0.00502059 -0.00454317 -0.00472711 -0.00502059 -0.00537952 -0.0040856 -0.00441853 -0.00472711 -0.00489206 -0.00441853 -0.00445283 -0.00489206 -0.0051361 -0.00472711 -0.00489206 -0.00537952 -0.00560208 -0.00489206 -0.0051361 -0.00560208 -0.0058822 -0.00298056 -0.00291037 -0.00378874 -0.00377383 -0.00291037 -0.00300816 -0.00377383 -0.00392119 -0.00378874 -0.00377383 -0.00445283 -0.00473975 -0.00377383 -0.00392119 -0.00473975 -0.00468135 -0.00300816 -0.00278277 -0.00392119 -0.00406836 -0.00278277 -0.00300991 -0.00406836 -0.00407589 -0.00392119 -0.00406836 -0.00468135 -0.00492708 -0.00406836 -0.00407589 -0.00492708 -0.00507944 -0.00445283 -0.00473975 -0.0051361 -0.00529377 -0.00473975 -0.00468135 -0.00529377 -0.00566094 -0.0051361 -0.00529377 -0.0058822 -0.00610946 -0.00529377 -0.00566094 -0.00610946 -0.00635145 -0.00468135 -0