<?xml version="1.0" ?> 
<!-- 
# vtk DataFile Version 3.0
#This file was generated by the deal.II library on 21:44:42 at 2021/4/29
-->
<VTKFile type="UnstructuredGrid" version="0.1" byte_order="LittleEndian">
<UnstructuredGrid>
<Piece NumberOfPoints="65536" NumberOfCells="16384" >
  <Points>
    <DataArray type="Float32" NumberOfComponents="3" format="ascii">
-1 -1 0
-0.984375 -1 0
-1 -0.984375 0
-0.984375 -0.984375 0
-0.984375 -1 0
-0.96875 -1 0
-0.984375 -0.984375 0
-0.96875 -0.984375 0
-1 -0.984375 0
-0.984375 -0.984375 0
-1 -0.96875 0
-0.984375 -0.96875 0
-0.984375 -0.984375 0
-0.96875 -0.984375 0
-0.984375 -0.96875 0
-0.96875 -0.96875 0
-0.96875 -1 0
-0.953125 -1 0
-0.96875 -0.984375 0
-0.953125 -0.984375 0
-0.953125 -1 0
-0.9375 -1 0
-0.953125 -0.984375 0
-0.9375 -0.984375 0
-0.96875 -0.984375 0
-0.953125 -0.984375 0
-0.96875 -0.96875 0
-0.953125 -0.96875 0
-0.953125 -0.984375 0
-0.9375 -0.984375 0
-0.953125 -0.96875 0
-0.9375 -0.96875 0
-1 -0.96875 0
-0.984375 -0.96875 0
-1 -0.953125 0
-0.984375 -0.953125 0
-0.984375 -0.96875 0
-0.96875 -0.96875 0
-0.984375 -0.953125 0
-0.96875 -0.953125 0
-1 -0.953125 0
-0.984375 -0.953125 0
-1 -0.9375 0
-0.984375 -0.9375 0
-0.984375 -0.953125 0
-0.96875 -0.953125 0
-0.984375 -0.9375 0
-0.96875 -0.9375 0
-0.96875 -0.96875 0
-0.953125 -0.96875 0
-0.96875 -0.953125 0
-0.953125 -0.953125 0
-0.953125 -0.96875 0
-0.9375 -0.96875 0
-0.953125 -0.953125 0
-0.9375 -0.953125 0
-0.96875 -0.953125 0
-0.953125 -0.953125 0
-0.96875 -0.9375 0
-0.953125 -0.9375 0
-0.953125 -0.953125 0
-0.9375 -0.953125 0
-0.953125 -0.9375 0
-0.9375 -0.9375 0
-0.9375 -1 0
-0.921875 -1 0
-0.9375 -0.984375 0
-0.921875 -0.984375 0
-0.921875 -1 0
-0.90625 -1 0
-0.921875 -0.984375 0
-0.90625 -0.984375 0
-0.9375 -0.984375 0
-0.921875 -0.984375 0
-0.9375 -0.96875 0
-0.921875 -0.96875 0
-0.921875 -0.984375 0
-0.90625 -0.984375 0
-0.921875 -0.96875 0
-0.90625 -0.96875 0
-0.90625 -1 0
-0.890625 -1 0
-0.90625 -0.984375 0
-0.890625 -0.984375 0
-0.890625 -1 0
-0.875 -1 0
-0.890625 -0.984375 0
-0.875 -0.984375 0
-0.90625 -0.984375 0
-0.890625 -0.984375 0
-0.90625 -0.96875 0
-0.890625 -0.96875 0
-0.890625 -0.984375 0
-0.875 -0.984375 0
-0.890625 -0.96875 0
-0.875 -0.96875 0
-0.9375 -0.96875 0
-0.921875 -0.96875 0
-0.9375 -0.953125 0
-0.921875 -0.953125 0
-0.921875 -0.96875 0
-0.90625 -0.96875 0
-0.921875 -0.953125 0
-0.90625 -0.953125 0
-0.9375 -0.953125 0
-0.921875 -0.953125 0
-0.9375 -0.9375 0
-0.921875 -0.9375 0
-0.921875 -0.953125 0
-0.90625 -0.953125 0
-0.921875 -0.9375 0
-0.90625 -0.9375 0
-0.90625 -0.96875 0
-0.890625 -0.96875 0
-0.90625 -0.953125 0
-0.890625 -0.953125 0
-0.890625 -0.96875 0
-0.875 -0.96875 0
-0.890625 -0.953125 0
-0.875 -0.953125 0
-0.90625 -0.953125 0
-0.890625 -0.953125 0
-0.90625 -0.9375 0
-0.890625 -0.9375 0
-0.890625 -0.953125 0
-0.875 -0.953125 0
-0.890625 -0.9375 0
-0.875 -0.9375 0
-1 -0.9375 0
-0.984375 -0.9375 0
-1 -0.921875 0
-0.984375 -0.921875 0
-0.984375 -0.9375 0
-0.96875 -0.9375 0
-0.984375 -0.921875 0
-0.96875 -0.921875 0
-1 -0.921875 0
-0.984375 -0.921875 0
-1 -0.90625 0
-0.984375 -0.90625 0
-0.984375 -0.921875 0
-0.96875 -0.921875 0
-0.984375 -0.90625 0
-0.96875 -0.90625 0
-0.96875 -0.9375 0
-0.953125 -0.9375 0
-0.96875 -0.921875 0
-0.953125 -0.921875 0
-0.953125 -0.9375 0
-0.9375 -0.9375 0
-0.953125 -0.921875 0
-0.9375 -0.921875 0
-0.96875 -0.921875 0
-0.953125 -0.921875 0
-0.96875 -0.90625 0
-0.953125 -0.90625 0
-0.953125 -0.921875 0
-0.9375 -0.921875 0
-0.953125 -0.90625 0
-0.9375 -0.90625 0
-1 -0.90625 0
-0.984375 -0.90625 0
-1 -0.890625 0
-0.984375 -0.890625 0
-0.984375 -0.90625 0
-0.96875 -0.90625 0
-0.984375 -0.890625 0
-0.96875 -0.890625 0
-1 -0.890625 0
-0.984375 -0.890625 0
-1 -0.875 0
-0.984375 -0.875 0
-0.984375 -0.890625 0
-0.96875 -0.890625 0
-0.984375 -0.875 0
-0.96875 -0.875 0
-0.96875 -0.90625 0
-0.953125 -0.90625 0
-0.96875 -0.890625 0
-0.953125 -0.890625 0
-0.953125 -0.90625 0
-0.9375 -0.90625 0
-0.953125 -0.890625 0
-0.9375 -0.890625 0
-0.96875 -0.890625 0
-0.953125 -0.890625 0
-0.96875 -0.875 0
-0.953125 -0.875 0
-0.953125 -0.890625 0
-0.9375 -0.890625 0
-0.953125 -0.875 0
-0.9375 -0.875 0
-0.9375 -0.9375 0
-0.921875 -0.9375 0
-0.9375 -0.921875 0
-0.921875 -0.921875 0
-0.921875 -0.9375 0
-0.90625 -0.9375 0
-0.921875 -0.921875 0
-0.90625 -0.921875 0
-0.9375 -0.921875 0
-0.921875 -0.921875 0
-0.9375 -0.90625 0
-0.921875 -0.90625 0
-0.921875 -0.921875 0
-0.90625 -0.921875 0
-0.921875 -0.90625 0
-0.90625 -0.90625 0
-0.90625 -0.9375 0
-0.890625 -0.9375 0
-0.90625 -0.921875 0
-0.890625 -0.921875 0
-0.890625 -0.9375 0
-0.875 -0.9375 0
-0.890625 -0.921875 0
-0.875 -0.921875 0
-0.90625 -0.921875 0
-0.890625 -0.921875 0
-0.90625 -0.90625 0
-0.890625 -0.90625 0
-0.890625 -0.921875 0
-0.875 -0.921875 0
-0.890625 -0.90625 0
-0.875 -0.90625 0
-0.9375 -0.90625 0
-0.921875 -0.90625 0
-0.9375 -0.890625 0
-0.921875 -0.890625 0
-0.921875 -0.90625 0
-0.90625 -0.90625 0
-0.921875 -0.890625 0
-0.90625 -0.890625 0
-0.9375 -0.890625 0
-0.921875 -0.890625 0
-0.9375 -0.875 0
-0.921875 -0.875 0
-0.921875 -0.890625 0
-0.90625 -0.890625 0
-0.921875 -0.875 0
-0.90625 -0.875 0
-0.90625 -0.90625 0
-0.890625 -0.90625 0
-0.90625 -0.890625 0
-0.890625 -0.890625 0
-0.890625 -0.90625 0
-0.875 -0.90625 0
-0.890625 -0.890625 0
-0.875 -0.890625 0
-0.90625 -0.890625 0
-0.890625 -0.890625 0
-0.90625 -0.875 0
-0.890625 -0.875 0
-0.890625 -0.890625 0
-0.875 -0.890625 0
-0.890625 -0.875 0
-0.875 -0.875 0
-0.875 -1 0
-0.859375 -1 0
-0.875 -0.984375 0
-0.859375 -0.984375 0
-0.859375 -1 0
-0.84375 -1 0
-0.859375 -0.984375 0
-0.84375 -0.984375 0
-0.875 -0.984375 0
-0.859375 -0.984375 0
-0.875 -0.96875 0
-0.859375 -0.96875 0
-0.859375 -0.984375 0
-0.84375 -0.984375 0
-0.859375 -0.96875 0
-0.84375 -0.96875 0
-0.84375 -1 0
-0.828125 -1 0
-0.84375 -0.984375 0
-0.828125 -0.984375 0
-0.828125 -1 0
-0.8125 -1 0
-0.828125 -0.984375 0
-0.8125 -0.984375 0
-0.84375 -0.984375 0
-0.828125 -0.984375 0
-0.84375 -0.96875 0
-0.828125 -0.96875 0
-0.828125 -0.984375 0
-0.8125 -0.984375 0
-0.828125 -0.96875 0
-0.8125 -0.96875 0
-0.875 -0.96875 0
-0.859375 -0.96875 0
-0.875 -0.953125 0
-0.859375 -0.953125 0
-0.859375 -0.96875 0
-0.84375 -0.96875 0
-0.859375 -0.953125 0
-0.84375 -0.953125 0
-0.875 -0.953125 0
-0.859375 -0.953125 0
-0.875 -0.9375 0
-0.859375 -0.9375 0
-0.859375 -0.953125 0
-0.84375 -0.953125 0
-0.859375 -0.9375 0
-0.84375 -0.9375 0
-0.84375 -0.96875 0
-0.828125 -0.96875 0
-0.84375 -0.953125 0
-0.828125 -0.953125 0
-0.828125 -0.96875 0
-0.8125 -0.96875 0
-0.828125 -0.953125 0
-0.8125 -0.953125 0
-0.84375 -0.953125 0
-0.828125 -0.953125 0
-0.84375 -0.9375 0
-0.828125 -0.9375 0
-0.828125 -0.953125 0
-0.8125 -0.953125 0
-0.828125 -0.9375 0
-0.8125 -0.9375 0
-0.8125 -1 0
-0.796875 -1 0
-0.8125 -0.984375 0
-0.796875 -0.984375 0
-0.796875 -1 0
-0.78125 -1 0
-0.796875 -0.984375 0
-0.78125 -0.984375 0
-0.8125 -0.984375 0
-0.796875 -0.984375 0
-0.8125 -0.96875 0
-0.796875 -0.96875 0
-0.796875 -0.984375 0
-0.78125 -0.984375 0
-0.796875 -0.96875 0
-0.78125 -0.96875 0
-0.78125 -1 0
-0.765625 -1 0
-0.78125 -0.984375 0
-0.765625 -0.984375 0
-0.765625 -1 0
-0.75 -1 0
-0.765625 -0.984375 0
-0.75 -0.984375 0
-0.78125 -0.984375 0
-0.765625 -0.984375 0
-0.78125 -0.96875 0
-0.765625 -0.96875 0
-0.765625 -0.984375 0
-0.75 -0.984375 0
-0.765625 -0.96875 0
-0.75 -0.96875 0
-0.8125 -0.96875 0
-0.796875 -0.96875 0
-0.8125 -0.953125 0
-0.796875 -0.953125 0
-0.796875 -0.96875 0
-0.78125 -0.96875 0
-0.796875 -0.953125 0
-0.78125 -0.953125 0
-0.8125 -0.953125 0
-0.796875 -0.953125 0
-0.8125 -0.9375 0
-0.796875 -0.9375 0
-0.796875 -0.953125 0
-0.78125 -0.953125 0
-0.796875 -0.9375 0
-0.78125 -0.9375 0
-0.78125 -0.96875 0
-0.765625 -0.96875 0
-0.78125 -0.953125 0
-0.765625 -0.953125 0
-0.765625 -0.96875 0
-0.75 -0.96875 0
-0.765625 -0.953125 0
-0.75 -0.953125 0
-0.78125 -0.953125 0
-0.765625 -0.953125 0
-0.78125 -0.9375 0
-0.765625 -0.9375 0
-0.765625 -0.953125 0
-0.75 -0.953125 0
-0.765625 -0.9375 0
-0.75 -0.9375 0
-0.875 -0.9375 0
-0.859375 -0.9375 0
-0.875 -0.921875 0
-0.859375 -0.921875 0
-0.859375 -0.9375 0
-0.84375 -0.9375 0
-0.859375 -0.921875 0
-0.84375 -0.921875 0
-0.875 -0.921875 0
-0.859375 -0.921875 0
-0.875 -0.90625 0
-0.859375 -0.90625 0
-0.859375 -0.921875 0
-0.84375 -0.921875 0
-0.859375 -0.90625 0
-0.84375 -0.90625 0
-0.84375 -0.9375 0
-0.828125 -0.9375 0
-0.84375 -0.921875 0
-0.828125 -0.921875 0
-0.828125 -0.9375 0
-0.8125 -0.9375 0
-0.828125 -0.921875 0
-0.8125 -0.921875 0
-0.84375 -0.921875 0
-0.828125 -0.921875 0
-0.84375 -0.90625 0
-0.828125 -0.90625 0
-0.828125 -0.921875 0
-0.8125 -0.921875 0
-0.828125 -0.90625 0
-0.8125 -0.90625 0
-0.875 -0.90625 0
-0.859375 -0.90625 0
-0.875 -0.890625 0
-0.859375 -0.890625 0
-0.859375 -0.90625 0
-0.84375 -0.90625 0
-0.859375 -0.890625 0
-0.84375 -0.890625 0
-0.875 -0.890625 0
-0.859375 -0.890625 0
-0.875 -0.875 0
-0.859375 -0.875 0
-0.859375 -0.890625 0
-0.84375 -0.890625 0
-0.859375 -0.875 0
-0.84375 -0.875 0
-0.84375 -0.90625 0
-0.828125 -0.90625 0
-0.84375 -0.890625 0
-0.828125 -0.890625 0
-0.828125 -0.90625 0
-0.8125 -0.90625 0
-0.828125 -0.890625 0
-0.8125 -0.890625 0
-0.84375 -0.890625 0
-0.828125 -0.890625 0
-0.84375 -0.875 0
-0.828125 -0.875 0
-0.828125 -0.890625 0
-0.8125 -0.890625 0
-0.828125 -0.875 0
-0.8125 -0.875 0
-0.8125 -0.9375 0
-0.796875 -0.9375 0
-0.8125 -0.921875 0
-0.796875 -0.921875 0
-0.796875 -0.9375 0
-0.78125 -0.9375 0
-0.796875 -0.921875 0
-0.78125 -0.921875 0
-0.8125 -0.921875 0
-0.796875 -0.921875 0
-0.8125 -0.90625 0
-0.796875 -0.90625 0
-0.796875 -0.921875 0
-0.78125 -0.921875 0
-0.796875 -0.90625 0
-0.78125 -0.90625 0
-0.78125 -0.9375 0
-0.765625 -0.9375 0
-0.78125 -0.921875 0
-0.765625 -0.921875 0
-0.765625 -0.9375 0
-0.75 -0.9375 0
-0.765625 -0.921875 0
-0.75 -0.921875 0
-0.78125 -0.921875 0
-0.765625 -0.921875 0
-0.78125 -0.90625 0
-0.765625 -0.90625 0
-0.765625 -0.921875 0
-0.75 -0.921875 0
-0.765625 -0.90625 0
-0.75 -0.90625 0
-0.8125 -0.90625 0
-0.796875 -0.90625 0
-0.8125 -0.890625 0
-0.796875 -0.890625 0
-0.796875 -0.90625 0
[...]
  <PointData Scalars="scalars">
    <DataArray type="Float32" Name="U" format="ascii">
0 0 0 -3.32125e-05 0 0 -3.32125e-05 -6.59225e-05 0 -3.32125e-05 0 -4.85736e-05 -3.32125e-05 -6.59225e-05 -4.85736e-05 -9.64246e-05 0 0 -6.59225e-05 -9.77137e-05 0 0 -9.77137e-05 -0.000128041 -6.59225e-05 -9.77137e-05 -9.64246e-05 -0.000142579 -9.77137e-05 -0.000128041 -0.000142579 -0.000186116 0 -4.85736e-05 0 -5.58797e-05 -4.85736e-05 -9.64246e-05 -5.58797e-05 -0.000110245 0 -5.58797e-05 0 -6.43599e-05 -5.58797e-05 -0.000110245 -6.43599e-05 -0.00012754 -9.64246e-05 -0.000142579 -0.000110245 -0.000161906 -0.000142579 -0.000186116 -0.000161906 -0.000210056 -0.000110245 -0.000161906 -0.00012754 -0.000188271 -0.000161906 -0.000210056 -0.000188271 -0.000243767 0 0 -0.000128041 -0.000156639 0 0 -0.000156639 -0.000182903 -0.000128041 -0.000156639 -0.000186116 -0.000225311 -0.000156639 -0.000182903 -0.000225311 -0.000258761 0 0 -0.000182903 -0.000206343 0 0 -0.000206343 -0.000225148 -0.000182903 -0.000206343 -0.000258761 -0.000284463 -0.000206343 -0.000225148 -0.000284463 -0.0003028 -0.000186116 -0.000225311 -0.000210056 -0.000254948 -0.000225311 -0.000258761 -0.000254948 -0.000297215 -0.000210056 -0.000254948 -0.000243767 -0.000290876 -0.000254948 -0.000297215 -0.000290876 -0.000323886 -0.000258761 -0.000284463 -0.000297215 -0.000338151 -0.000284463 -0.0003028 -0.000338151 -0.000376439 -0.000297215 -0.000338151 -0.000323886 -0.000337883 -0.000338151 -0.000376439 -0.000337883 -0.000328177 0 -6.43599e-05 0 -4.30731e-05 -6.43599e-05 -0.00012754 -4.30731e-05 -8.40707e-05 0 -4.30731e-05 0 -4.47713e-05 -4.30731e-05 -8.40707e-05 -4.47713e-05 -8.83825e-05 -0.00012754 -0.000188271 -8.40707e-05 -0.000120431 -0.000188271 -0.000243767 -0.000120431 -0.000152557 -8.40707e-05 -0.000120431 -8.83825e-05 -0.000130264 -0.000120431 -0.000152557 -0.000130264 -0.000166857 0 -4.47713e-05 0 4.53744e-06 -4.47713e-05 -8.83825e-05 4.53744e-06 1.12338e-05 0 4.53744e-06 0 6.56835e-05 4.53744e-06 1.12338e-05 6.56835e-05 0.00013161 -8.83825e-05 -0.000130264 1.12338e-05 2.11329e-05 -0.000130264 -0.000166857 2.11329e-05 3.65968e-05 1.12338e-05 2.11329e-05 0.00013161 0.00020282 2.11329e-05 3.65968e-05 0.00020282 0.000274751 -0.000243767 -0.000290876 -0.000152557 -0.000179402 -0.000290876 -0.000323886 -0.000179402 -0.000205582 -0.000152557 -0.000179402 -0.000166857 -0.000196599 -0.000179402 -0.000205582 -0.000196599 -0.000211709 -0.000323886 -0.000337883 -0.000205582 -0.000231554 -0.000337883 -0.000328177 -0.000231554 -0.000262593 -0.000205582 -0.000231554 -0.000211709 -0.00020993 -0.000231554 -0.000262593 -0.00020993 -0.000181387 -0.000166857 -0.000196599 3.65968e-05 5.70677e-05 -0.000196599 -0.000211709 5.70677e-05 8.40246e-05 3.65968e-05 5.70677e-05 0.000274751 0.000357069 5.70677e-05 8.40246e-05 0.000357069 0.000440114 -0.000211709 -0.00020993 8.40246e-05 0.000116348 -0.00020993 -0.000181387 0.000116348 0.000155293 8.40246e-05 0.000116348 0.000440114 0.000537247 0.000116348 0.000155293 0.000537247 0.000633489 0 0 -0.000225148 -0.00023653 0 0 -0.00023653 -0.000235467 -0.000225148 -0.00023653 -0.0003028 -0.000315898 -0.00023653 -0.000235467 -0.000315898 -0.00033102 0 0 -0.000235467 -0.000217741 0 0 -0.000217741 -0.00018303 -0.000235467 -0.000217741 -0.00033102 -0.000354714 -0.000217741 -0.00018303 -0.000354714 -0.000388694 -0.0003028 -0.000315898 -0.000376439 -0.000407491 -0.000315898 -0.00033102 -0.000407491 -0.000418782 -0.000376439 -0.000407491 -0.000328177 -0.000296768 -0.000407491 -0.000418782 -0.000296768 -0.000252651 -0.00033102 -0.000354714 -0.000418782 -0.000395994 -0.000354714 -0.000388694 -0.000395994 -0.000327497 -0.000418782 -0.000395994 -0.000252651 -0.000212586 -0.000395994 -0.000327497 -0.000212586 -0.000190785 0 0 -0.00018303 -0.000141707 0 0 -0.000141707 -0.000114229 -0.00018303 -0.000141707 -0.000388694 -0.000415276 -0.000141707 -0.000114229 -0.000415276 -0.000399206 0 0 -0.000114229 -0.000120795 0 0 -0.000120795 -0.000158171 -0.000114229 -0.000120795 -0.000399206 -0.000300798 -0.000120795 -0.000158171 -0.000300798 -0.000119101 -0.000388694 -0.000415276 -0.000327497 -0.0002248 -0.000415276 -0.000399206 -0.0002248 -0.000120793 -0.000327497 -0.0002248 -0.000190785 -0.000182834 -0.0002248 -0.000120793 -0.000182834 -0.000159449 -0.000399206 -0.000300798 -0.000120793 -6.15766e-05 -0.000300798 -0.000119101 -6.15766e-05 -5.10681e-05 -0.000120793 -6.15766e-05 -0.000159449 -7.37532e-05 -6.15766e-05 -5.10681e-05 -7.37532e-05 8.83069e-05 -0.000328177 -0.000296768 -0.000262593 -0.000291743 -0.000296768 -0.000252651 -0.000291743 -0.000311952 -0.000262593 -0.000291743 -0.000181387 -0.000130653 -0.000291743 -0.000311952 -0.000130653 -5.47814e-05 -0.000252651 -0.000212586 -0.000311952 -0.000299091 -0.000212586 -0.000190785 -0.000299091 -0.000238736 -0.000311952 -0.000299091 -5.47814e-05 2.65422e-05 -0.000299091 -0.000238736 2.65422e-05 0.000113933 -0.000181387 -0.000130653 0.000155293 0.000204145 -0.000130653 -5.47814e-05 0.000204145 0.000266194 0.000155293 0.000204145 0.000633489 0.000745194 0.000204145 0.000266194 0.000745194 0.000855898 -5.47814e-05 2.65422e-05 0.000266194 0.000352972 2.65422e-05 0.000113933 0.000352972 0.000462403 0.000266194 0.000352972 0.000855898 0.000988187 0.000352972 0.000462403 0.000988187 0.00113378 -0.000190785 -0.000182834 -0.000238736 -0.000120013 -0.000182834 -0.000159449 -0.000120013 3.47249e-05 -0.000238736 -0.000120013 0.000113933 0.000192993 -0.000120013 3.47249e-05 0.000192993 0.000293204 -0.000159449 -7.37532e-05 3.47249e-05 0.000197545 -7.37532e-05 8.83069e-05 0.000197545 0.000349719 3.47249e-05 0.000197545 0.000293204 0.000421196 0.000197545 0.000349719 0.000421196 0.000608929 0.000113933 0.000192993 0.000462403 0.000606408 0.000192993 0.000293204 0.000606408 0.000763657 0.000462403 0.000606408 0.00113378 0.00131798 0.000606408 0.000763657 0.00131798 0.00153537 0.000293204 0.000421196 0.000763657 0.000952322 0.000421196 0.000608929 0.000952322 0.00114654 0.000763657 0.000952322 0.00153537 0.00178466 0.000952322 0.00114654 0.00178466 0.00206198 0 6.56835e-05 0 0.000136265 6.56835e-05 0.00013161 0.000136265 0.000274919 0 0.000136265 0 0.000227491 0.000136265 0.000274919 0.000227491 0.000457377 0.00013161 0.00020282 0.000274919 0.000412033 0.00020282 0.000274751 0.000412033 0.00055728 0.000274919 0.000412033 0.000457377 0.000690995 0.000412033 0.00055728 0.000690995 0.000930381 0 0.000227491 0 0.00030525 0.000227491 0.000457377 0.00030525 0.0006063 0 0.00030525 0 0.000377919 0.00030525 0.0006063 0.000377919 0.000763568 0.000457377 0.000690995 0.0006063 0.000916162 0.000690995 0.000930381 0.000916162 0.00121449 0.0006063 0.000916162 0.000763568 0.00113947 0.000916162 0.00121449 0.00113947 0.00153855 0.000274751 0.000357069 0.00055728 0.00070059 0.000357069 0.000440114 0.00070059 0.000861487 0.00055728 0.00070059 0.000930381 0.00117605 0.00070059 0.000861487 0.00117605 0.00142538 0.000440114 0.000537247 0.000861487 0.00102331 0.000537247 0.000633489 0.00102331 0.00121762 0.000861487 0.00102331 0.00142538 0.00168025 0.00102331 0.00121762 0.00168025 0.00192863 0.000930381 0.00117605 0.00121449 0.00153199 0.00117605 0.00142538 0.00153199 0.00183533 0.00121449 0.00153199 0.00153855 0.00191484 0.00153199 0.00183533 0.00191484 0.00232821 0.00142538 0.00168025 0.00183533 0.00217204 0.00168025 0.00192863 0.00217204 0.00249904 0.00183533 0.00217204 0.00232821 0.00269843 0.00217204 0.00249904 0.00269843 0.00311778 0 0.000377919 0 0.000440559 0.000377919 0.000763568 0.000440559 0.000880765 0 0.000440559 0 0.000493261 0.000440559 0.000880765 0.000493261 0.000977117 0.000763568 0.00113947 0.000880765 0.00132267 0.00113947 0.00153855 0.00132267 0.00176256 0.000880765 0.00132267 0.000977117 0.00148538 0.00132267 0.00176256 0.00148538 0.00196563 0 0.000493261 0 0.000521683 0.000493261 0.000977117 0.000521683 0.0010579 0 0.000521683 0 0.00057247 0.000521683 0.0010579 0.00057247 0.00114482 0.000977117 0.00148538 0.0010579 0.00156477 0.00148538 0.00196563 0.00156477 0.00211736 0.0010579 0.00156477 0.00114482 0.00172029 0.00156477 0.00211736 0.00172029 0.00229167 0.00153855 0.00191484 0.00176256 0.00221072 0.00191484 0.00232821 0.00221072 0.00265344 0.00176256 0.00221072 0.00196563 0.00249086 0.00221072 0.00265344 0.00249086 0.00296961 0.00232821 0.00269843 0.00265344 0.00312207 0.00269843 0.00311778 0.00312207 0.00357731 0.00265344 0.00312207 0.00296961 0.00350431 0.00312207 0.00357731 0.00350431 0.00397744 0.00196563 0.00249086 0.00211736 0.00261018 0.00249086 0.00296961 0.00261018 0.00318631 0.00211736 0.00261018 0.00229167 0.00287443 0.00261018 0.00318631 0.00287443 0.00343804 0.00296961 0.00350431 0.00318631 0.00367145 0.00350431 0.00397744 0.00367145 0.0042841 0.00318631 0.00367145 0.00343804 0.00403279 0.00367145 0.0042841 0.00403279 0.00457785 0.000633489 0.000745194 0.00121762 0.00141608 0.000745194 0.000855898 0.00141608 0.00165721 0.00121762 0.00141608 0.00192863 0.00218448 0.00141608 0.00165721 0.00218448 0.00242867 0.000855898 0.000988187 0.00165721 0.00188854 0.000988187 0.00113378 0.00188854 0.00215006 0.00165721 0.00188854 0.00242867 0.00270908 0.00188854 0.00215006 0.00270908 0.00299441 0.00192863 0.00218448 0.00249904 0.00287004 0.00218448 0.00242867 0.00287004 0.0032293 0.00249904 0.00287004 0.00311778 0.00347208 0.00287004 0.0032293 0.00347208 0.00390037 0.00242867 0.00270908 0.0032293 0.0036126 0.00270908 0.00299441 0.0036126 0.00396325 0.0032293 0.0036126 0.00390037 0.00426525 0.0036126 0.00396325 0.00426525 0.00475249 0.00113378 0.00131798 0.00215006 0.0023742 0.00131798 0.00153537 0.0023742 0.00263065 0.00215006 0.0023742 0.00299441 0.00336017 0.0023742 0.00263065 0.00336017 0.00370793 0.00153537 0.00178466 0.00263065 0.00287813 0.00178466 0.00206198 0.00287813 0.0032065 0.00263065 0.00287813 0.00370793 0.0041068 0.00287813 0.0032065 0.0041068 0.00439757 0.00299441 0.00336017 0.00396325 0.00430203 0.00336017 0.00370793 0.00430203 0.00464535 0.00396325 0.00430203 0.00475249 0.0051872 0.00430203 0.00464535 0.0051872 0.0057384 0.00370793 0.0041068 0.00464535 0.00501545 0.0041068 0.00439757 0.00501545 0.00551361 0.00464535 0.00501545 0.0057384 0.00617868 0.00501545 0.00551361 0.00617868 0.00664172 0.00311778 0.00347208 0.00357731 0.0040855 0.00347208 0.00390037 0.0040855 0.00455042 0.00357731 0.0040855 0.00397744 0.00450678 0.0040855 0.00455042 0.00450678 0.00498072 0.00390037 0.00426525 0.00455042 0.00508695 0.00426525 0.00475249 0.00508695 0.00551382 0.00455042 0.00508695 0.00498072 0.00550837 0.00508695 0.00551382 0.00550837 0.00602673 0.00397744 0.00450678 0.0042841 0.00477132 0.00450678 0.00498072 0.00477132 0.00542497 0.0042841 0.00477132 0.00457785 0.00519571 0.00477132 0.00542497 0.00519571 0.00571846 0.00498072 0.00550837 0.00542497 0.00591273 0.00550837 0.00602673 0.00591273 0.00658854 0.00542497 0.00591273 0.00571846 0.00638139 0.00591273 0.00658854 0.00638139 0.0068786 0.00475249 0.0051872 0.00551382 0.00603794 0.0051872 0.0057384 0.00603794 0.00640811 0.00551382 0.00603794 0.00602673 0.00657292 0.00603794 0.00640811 0.00657292 0.00716967 0.0057384 0.00617868 0.00640811 0.00696999 0.00617868 0.00664172 0.00696999 0.0073841 0.00640811 0.00696999 0.00716967 0.00769899 0.00696999 0.0073841 0.00769899 0.00835523 0.00602673 0.00657292 0.00658854 0.00707727 0.00657292 0.00716967 0.00707727 0.00775889 0.00658854 0.00707727 0.0068786 0.00758526 0.00707727 0.00775889 0.00758526 0.00802988 0.00716967 0.00769899 0.00775889 0.00827753 0.00769899 0.00835523 0.00827753 0.00892564 0.00775889 0.00827753 0.00802988 0.00876296 0.00827753 0.00892564 0.00876296 0.0092008 0 0 -0.000158171 -0.000184193 0 0 -0.000184193 -0.000137882 -0.000158171 -0.000184193 -0.000119101 8.54315e-05 -0.000184193 -0.000137882 8.54315e-05 0.000218304 0 0 -0.000137882 7.32735e-06 0 0 7.32735e-06 0.00019989 -0.000137882 7.32735e-06 0.000218304 0.000245362 7.32735e-06 0.00019989 0.000245362 0.000255432 -0.000119101 8.54315e-05 -5.10681e-05 -3.20849e-05 8.54315e-05 0.000218304 -3.20849e-05 9.57545e-05 -5.10681e-05 -3.20849e-05 8.83069e-05 0.000292872 -3.20849e-05 9.57545e-05 0.000292872 0.000463395 0.000218304 0.000245362 9.57545e-05 0.000357692 0.000245362 0.000255432 0.000357692 0.000657848 9.57545e-05 0.000357692 0.000463395 0.000599277 0.000357692 0.000657848 0.000599277 0.000785023 0 0 0.00019989 0.000356615 0 0 0.000356615 0.000449166 0.00019989 0.000356615 0.000255432 0.000380506 0.000356615 0.000449166 0.000380506 0.000641745 0 0 0.000449166 0.000534386 0 0 0.000534386 0.0006385 0.000449166 0.000534386 0.000641745 0.000917159 0.000534386 0.0006385 0.000917159 0.00116334 0.000255432 0.000380506 0.000657848 0.000863437 0.000380506 0.000641745 0.000863437 0.00100238 0.000657848 0.000863437 0.000785023 0.00113399 0.000863437 0.00100238 0.00113399 0.00157058 0.000641745 0.000917159 0.00100238 0.00125438 0.000917159 0.00116334 0.00125438 0.00167348 0.00100238 0.00125438 0.00157058 0.0019117 0.00125438 0.00167348 0.0019117 0.00209353 8.83069e-05 0.000292872 0.000349719 0.000515995 0.000292872 0.000463395 0.000515995 0.000743881 0.000349719 0.000515995 0.000608929 0.00082815 0.000515995 0.000743881 0.00082815 0.00107596 0.000463395 0.000599277 0.000743881 0.00102924 0.000599277 0.000785023 0.00102924 0.0013172 0.000743881 0.00102924 0.00107596 0.00133912 0.00102924 0.0013172 0.00133912 0.00166037 0.000608929 0.00082815 0.00114654 0.00139316 0.00082815 0.00107596 0.00139316 0.0016591 0.00114654 0.00139316 0.00206198 0.00235068 0.00139316 0.0016591 0.00235068 0.00270451 0.00107596 0.00133912 0.0016591 0.00200154 0.00133912 0.00166037 0.00200154 0.00238221 0.0016591 0.00200154 0.00270451 0.00307464 0.00200154 0.00238221 0.00307464 0.00349472 0.000785023 0.00113399 0.0013172 0.00153167 0.00113399 0.00157058 0.00153167 0.00176236 0.0013172 0.00153167 0.00166037 0.00206723 0.00153167 0.00176236 0.00206723 0.00253212 0.00157058 0.0019117 0.00176236 0.00213238 0.0019117 0.00209353 0.00213238 0.00272718 0.00176236 0.00213238 0.00253212 0.00304046 0.00213238 0.00272718 0.00304046 0.00352625 0.00166037 0.00206723 0.00238221 0.00286784 0.00206723 0.00253212 0.00286784 0.00338316 0.00238221 0.00286784 0.00349472 0.00381256 0.00286784 0.00338316 0.00381256 0.00419487 0.00253212 0.00304046 0.00338316 0.00388366 0.00304046 0.00352625 0.00388366 0.00434572 0.00338316 0.00388366 0.00419487 0.00467383 0.00388366 0.00434572 0.00467383 0.00544521 0 0 0.0006385 0.000722564 0 0 0.000722564 0.000805039 0.0006385 0.000722564 0.00116334 0.00148336 0.000722564 0.000805039 0.00148336 0.00190566 0 0 0.000805039 0.00103724 0 0 0.00103724 0.00143269 0.000805039 0.00103724 0.00190566 0.00218957 0.00103724 0.00143269 0.00218957 0.00226915 0.00116334 0.00148336 0.00167348 0.00207953 0.00148336 0.00190566 0.00207953 0.00233969 0.00167348 0.00207953 0.00209353 0.00234099 0.00207953 0.00233969 0.00234099 0.00285535 0.00190566 0.00218957 0.00233969 0.00268426 0.00218957 0.00226915 0.00268426 0.00324385 0.00233969 0.00268426 0.00285535 0.00350576 0.00268426 0.00324385 0.00350576 0.00413247 0 0 0.00143269 0.00171062 0 0 0.00171062 0.00173201 0.00143269 0.00171062 0.00226915 0.0025056 0.00171062 0.00173201 0.0025056 0.00308662 0 0 0.00173201 0.00174376 0 0 0.00174376 0.00194188 0.00173201 0.00174376 0.00308662 0.00364794 0.00174376 0.00194188 0.00364794 0.00396494 0.00226915 0.0025056 0.00324385 0.00380277 0.0025056 0.00308662 0.00380277 0.00420162 0.00324385 0.00380277 0.00413247 0.00471652 0.00380277 0.00420162 0.00471652 0.00537529 0.00308662 0.00364794 0.00420162 0.00474553 0.00364794 0.00396494 0.00474553 0.00550398 0.00420162 0.00474553 0.00537529 0.00597171 0.00474553 0.00550398 0.00597171 0.00662737 0.00209353 0.00234099 0.00272718 0.00336289 0.00234099 0.00285535 0.00336289 0.00391051 0.00272718 0.00336289 0.00352625 0.00406398 0.00336289 0.00391051 0.00406398 0.0046115 0.00285535 0.00350576 0.00391051 0.00435913 0.00350576 0.00413247 0.00435913 0.00485811 0.00391051 0.00435913 0.0046115 0.00534065 0.00435913 0.00485811 0.00534065 0.00614465 0.00352625 0.00406398 0.00434572 0.00487581 0.00406398 0.0046115 0.00487581 0.00565504 0.00434572 0.00487581 0.00544521 0.00619839 0.00487581 0.00565504 0.00619839 0.00681748 0.0046115 0.00534065 0.00565504 0.00642978 0.00534065 0.00614465 0.00642978 0.0072522 0.00565504 0.00642978 0.00681748 0.00746338 0.00642978 0.0072522 0.00746338 0.00824001 0.00413247 0.00471652 0.00485811 0.00557164 0.00471652 0.00537529 0.00557164 0.00642402 0.00485811 0.00557164 0.00614465 0.00691206 0.00557164 0.00642402 0.00691206 0.00761924 0.00537529 0.00597171 0.00642402 0.00735212 0.00597171 0.00662737 0.00735212 0.00815535 0.00642402 0.00735212 0.00761924 0.00856536 0.00735212 0.00815535 0.00856536 0.00986157 0.00614465 0.00691206 0.0072522 0.00808765 0.00691206 0.00761924 0.00808765 0.00919227 0.0072522 0.00808765 0.00824001 0.00921573 0.00808765 0.00919227 0.00921573 0.00992749 0.00761924 0.00856536 0.00919227 0.0100154 0.00856536 0.00986157 0.0100154 0.0107222 0.00919227 0.0100154 0.00992749 0.0110632 0.0100154 0.0107222 0.0110632 0.0120794 0.00206198 0.00235068 0.0032065 0.00354777 0.00235068 0.00270451 0.00354777 0.00390315 0.0032065 0.00354777 0.00439757 0.00474933 0.00354777 0.00390315 0.00474933 0.00507376 0.00270451 0.00307464 0.00390315 0.00422191 0.00307464 0.00349472 0.00422191 0.00456055 0.00390315 0.00422191 0.00507376 0.00560224 0.00422191 0.00456055 0.00560224 0.00611471 0.00439757 0.00474933 0.00551361 0.00600798 0.00474933 0.00507376 0.00600798 0.00658088 0.00551361 0.00600798 0.00664172 0.00700845 0.00600798 0.00658088 0.00700845 0.00742616 0.00507376 0.00560224 0.00658088 0.00693281 0.00560224 0.00611471 0.00693281 0.00738351 0.00658088 0.00693281 0.00742616 0.00795607 0.00693281 0.00738351 0.00795607 0.00847897 0.00349472 0.00381256 0.00456055 0.00507123 0.00381256 0.00419487 0.00507123 0.00564311 0.00456055 0.00507123 0.00611471 0.00663108 0.00507123 0.00564311 0.00663108 0.00701988 0.00419487 0.00467383 0.00564311 0.00626516 0.00467383 0.00544521 0.00626516 0.00663244 0.00564311 0.00626516 0.00701988 0.00743651 0.00626516 0.00663244 0.00743651 0.0080569 0.00611471 0.00663108 0.00738351 0.00771137 0.00663108 0.00701988 0.00771137 0.0083442 0.00738351 0.00771137 0.00847897 0.00915274 0.00771137 0.0083442 0.00915274 0.00956211 0.00701988 0.00743651 0.0083442 0.00884689 0.00743651 0.0080569 0.00884689 0.00945794 0.0083442 0.00884689 0.00956211 0.0102307 0.00884689 0.00945794 0.0102307 0.0105748 0.00664172 0.00700845 0.0073841 0.0080472 0.00700845 0.00742616 0.0080472 0.00850376 0.0073841 0.0080472 0.00835523 0.00882806 0.0080472 0.00850376 0.00882806 0.00955028 0.00742616 0.00795607 0.00850376 0.00914349 0.00795607 0.00847897 0.00914349 0.00960707 0.00850376 0.00914349 0.00955028 0.00995395 0.00914349 0.00960707 0.00995395 0.0106907 0.00835523 0.00882806 0.00892564 0.00948 0.00882806 0.00955028 0.00948 0.0100487 0.00892564 0.00948 0.0092008 0.010009 0.00948 0.0100487 0.010009 0.0105113 0.00955028 0.00995395 0.0100487 0.0107557 0.00995395 0.0106907 0.0107557 0.0113191 0.0100487 0.0107557 0.0105113 0.0112431 0.0107557 0.0113191 0.0112431 0.0117159 0.00847897 0.00915274 0.00960707 0.0101782 0.00915274 0.00956211 0.0101782 0.0107486 0.00960707 0.0101782 0.0106907 0.0110831 0.0101782 0.0107486 0.0110831 0.011894 0.00956211 0.0102307 0.0107486 0.0112525 0.0102307 0.0105748 0.0112525 0.0120677 0.0107486 0.0112525 0.011894 0.0124164 0.0112525 0.0120677 0.0124164 0.0130015 0.0106907 0.0110831 0.0113191 0.0121619 0.0110831 0.011894 0.0121619 0.0124819 0.0113191 0.0121619 0.0117159 0.0123029 0.0121619 0.0124819 0.0123029 0.0130707 0.011894 0.0124164 0.0124819 0.0132647 0.0124164 0.0130015 0.0132647 0.0136679 0.0124819 0.0132647 0.0130707 0.0136506 0.0132647 0.0136679 0.0136506 0.0145172 0.00544521 0.00619839 0.00663244 0.00719271 0.00619839 0.00681748 0.00719271 0.00783433 0.00663244 0.00719271 0.0080569 0.00857836 0.00719271 0.00783433 0.00857836 0.00923486 0.00681748 0.00746338 0.00783433 0.00869085 0.00746338 0.00824001 0.00869085 0.00935507 0.00783433 0.00869085