# vtk DataFile Version 3.0
#This file was generated by the deal.II library on 2021/4/23 at 0:45:39
ASCII
DATASET UNSTRUCTURED_GRID

FIELD FieldData 2
CYCLE 1 1 int
29
TIME 1 1 double
0.058
POINTS 5076 double
-1 -1 0
-0.75 -1 0
-1 -0.75 0
-0.75 -0.75 0
-0.75 -1 0
-0.5 -1 0
-0.75 -0.75 0
-0.5 -0.75 0
-1 -0.75 0
-0.75 -0.75 0
-1 -0.5 0
-0.75 -0.5 0
-0.75 -0.75 0
-0.5 -0.75 0
-0.75 -0.5 0
-0.5 -0.5 0
-0.5 -1 0
-0.25 -1 0
-0.5 -0.75 0
-0.25 -0.75 0
-0.5 -0.75 0
-0.25 -0.75 0
-0.5 -0.5 0
-0.25 -0.5 0
-1 -0.5 0
-0.75 -0.5 0
-1 -0.25 0
-0.75 -0.25 0
-0.75 -0.5 0
-0.5 -0.5 0
-0.75 -0.25 0
-0.5 -0.25 0
-1 -0.25 0
-0.75 -0.25 0
-1 0 0
-0.75 0 0
-0.75 -0.25 0
-0.5 -0.25 0
-0.75 0 0
-0.5 0 0
-0.5 -0.5 0
-0.25 -0.5 0
-0.5 -0.25 0
-0.25 -0.25 0
-0.5 -0.25 0
-0.25 -0.25 0
-0.5 0 0
-0.25 0 0
-1 0 0
-0.75 0 0
-1 0.25 0
-0.75 0.25 0
-0.75 0 0
-0.5 0 0
-0.75 0.25 0
-0.5 0.25 0
-1 0.25 0
-0.75 0.25 0
-1 0.5 0
-0.75 0.5 0
-0.75 0.25 0
-0.5 0.25 0
-0.75 0.5 0
-0.5 0.5 0
-0.5 0 0
-0.25 0 0
-0.5 0.25 0
-0.25 0.25 0
-0.25 0 0
0 0 0
-0.25 0.25 0
0 0.25 0
-0.5 0.25 0
-0.25 0.25 0
-0.5 0.5 0
-0.25 0.5 0
-0.25 0.25 0
0 0.25 0
-0.25 0.5 0
0 0.5 0
-1 0.5 0
-0.75 0.5 0
-1 0.75 0
-0.75 0.75 0
-0.75 0.5 0
-0.5 0.5 0
-0.75 0.75 0
-0.5 0.75 0
-1 0.75 0
-0.75 0.75 0
-1 1 0
-0.75 1 0
-0.75 0.75 0
-0.5 0.75 0
-0.75 1 0
-0.5 1 0
-0.5 0.5 0
-0.25 0.5 0
-0.5 0.75 0
-0.25 0.75 0
-0.25 0.5 0
0 0.5 0
-0.25 0.75 0
0 0.75 0
-0.5 0.75 0
-0.25 0.75 0
-0.5 1 0
-0.25 1 0
-0.25 0.75 0
0 0.75 0
-0.25 1 0
0 1 0
0.25 -1 0
0.375 -1 0
0.25 -0.875 0
0.375 -0.875 0
-0.25 -0.5 0
-0.125 -0.5 0
-0.25 -0.375 0
-0.125 -0.375 0
-0.25 -0.375 0
-0.125 -0.375 0
-0.25 -0.25 0
-0.125 -0.25 0
-0.25 -0.25 0
-0.125 -0.25 0
-0.25 -0.125 0
-0.125 -0.125 0
-0.25 -0.125 0
-0.125 -0.125 0
-0.25 0 0
-0.125 0 0
-0.125 -0.125 0
0 -0.125 0
-0.125 0 0
0 0 0
-0.25 -1 0
-0.125 -1 0
-0.25 -0.875 0
-0.125 -0.875 0
-0.125 -1 0
0 -1 0
-0.125 -0.875 0
0 -0.875 0
-0.25 -0.875 0
-0.125 -0.875 0
-0.25 -0.75 0
-0.125 -0.75 0
-0.125 -0.875 0
0 -0.875 0
-0.125 -0.75 0
0 -0.75 0
-0.25 -0.75 0
-0.125 -0.75 0
-0.25 -0.625 0
-0.125 -0.625 0
-0.125 -0.75 0
0 -0.75 0
-0.125 -0.625 0
0 -0.625 0
-0.25 -0.625 0
-0.125 -0.625 0
-0.25 -0.5 0
-0.125 -0.5 0
-0.125 -0.625 0
0 -0.625 0
-0.125 -0.5 0
0 -0.5 0
0 -1 0
0.125 -1 0
0 -0.875 0
0.125 -0.875 0
0.125 -1 0
0.25 -1 0
0.125 -0.875 0
0.25 -0.875 0
0 -0.875 0
0.125 -0.875 0
0 -0.75 0
0.125 -0.75 0
0.125 -0.875 0
0.25 -0.875 0
0.125 -0.75 0
0.25 -0.75 0
0.9375 -0.0625 0
1 -0.0625 0
0.9375 0 0
1 0 0
0.625 -0.75 0
0.6875 -0.75 0
0.625 -0.6875 0
0.6875 -0.6875 0
0.6875 -0.75 0
0.75 -0.75 0
0.6875 -0.6875 0
0.75 -0.6875 0
0.75 -0.75 0
0.8125 -0.75 0
0.75 -0.6875 0
0.8125 -0.6875 0
0.8125 -0.75 0
0.875 -0.75 0
0.8125 -0.6875 0
0.875 -0.6875 0
0.25 -0.375 0
0.3125 -0.375 0
0.25 -0.3125 0
0.3125 -0.3125 0
0.25 -0.25 0
0.3125 -0.25 0
0.25 -0.1875 0
0.3125 -0.1875 0
0.25 -0.1875 0
0.3125 -0.1875 0
0.25 -0.125 0
0.3125 -0.125 0
0.5625 -0.75 0
0.625 -0.75 0
0.5625 -0.6875 0
0.625 -0.6875 0
0.5 -0.6875 0
0.5625 -0.6875 0
0.5 -0.625 0
0.5625 -0.625 0
0.5625 -0.6875 0
0.625 -0.6875 0
0.5625 -0.625 0
0.625 -0.625 0
0.5 -0.625 0
0.5625 -0.625 0
0.5 -0.5625 0
0.5625 -0.5625 0
0.5 -0.5625 0
0.5625 -0.5625 0
0.5 -0.5 0
0.5625 -0.5 0
0.9375 -0.75 0
1 -0.75 0
0.9375 -0.6875 0
1 -0.6875 0
0.875 -0.6875 0
0.9375 -0.6875 0
0.875 -0.625 0
0.9375 -0.625 0
0.9375 -0.6875 0
1 -0.6875 0
0.9375 -0.625 0
1 -0.625 0
0.9375 -0.625 0
1 -0.625 0
0.9375 -0.5625 0
1 -0.5625 0
0.3125 -0.5 0
0.375 -0.5 0
0.3125 -0.4375 0
0.375 -0.4375 0
0.25 -0.4375 0
0.3125 -0.4375 0
0.25 -0.375 0
0.3125 -0.375 0
0.3125 -0.4375 0
0.375 -0.4375 0
0.3125 -0.375 0
0.375 -0.375 0
0.375 -0.5 0
0.4375 -0.5 0
0.375 -0.4375 0
0.4375 -0.4375 0
0.4375 -0.5 0
0.5 -0.5 0
0.4375 -0.4375 0
0.5 -0.4375 0
0.3125 -0.125 0
0.375 -0.125 0
0.3125 -0.0625 0
0.375 -0.0625 0
0.25 -0.0625 0
0.3125 -0.0625 0
0.25 0 0
0.3125 0 0
0.3125 -0.0625 0
0.375 -0.0625 0
0.3125 0 0
0.375 0 0
0.375 -0.0625 0
0.4375 -0.0625 0
0.375 0 0
0.4375 0 0
0.375 -0.6875 0
0.4375 -0.6875 0
0.375 -0.625 0
0.4375 -0.625 0
0.3125 -0.625 0
0.375 -0.625 0
0.3125 -0.5625 0
0.375 -0.5625 0
0.375 -0.625 0
0.4375 -0.625 0
0.375 -0.5625 0
0.4375 -0.5625 0
0.4375 -0.625 0
0.5 -0.625 0
0.4375 -0.5625 0
0.5 -0.5625 0
0.375 -0.5625 0
0.4375 -0.5625 0
0.375 -0.5 0
0.4375 -0.5 0
0.4375 -0.5625 0
0.5 -0.5625 0
0.4375 -0.5 0
0.5 -0.5 0
0.625 -1 0
0.6875 -1 0
0.625 -0.9375 0
0.6875 -0.9375 0
0.6875 -1 0
0.75 -1 0
0.6875 -0.9375 0
0.75 -0.9375 0
0.625 -0.9375 0
0.6875 -0.9375 0
0.625 -0.875 0
0.6875 -0.875 0
0 -0.25 0
0.0625 -0.25 0
0 -0.1875 0
0.0625 -0.1875 0
0 -0.1875 0
0.0625 -0.1875 0
0 -0.125 0
0.0625 -0.125 0
0.375 -0.875 0
0.4375 -0.875 0
0.375 -0.8125 0
0.4375 -0.8125 0
0.25 -0.75 0
0.3125 -0.75 0
0.25 -0.6875 0
0.3125 -0.6875 0
0.3125 -0.75 0
0.375 -0.75 0
0.3125 -0.6875 0
0.375 -0.6875 0
0.25 -0.6875 0
0.3125 -0.6875 0
0.25 -0.625 0
0.3125 -0.625 0
0.3125 -0.6875 0
0.375 -0.6875 0
0.3125 -0.625 0
0.375 -0.625 0
0.5 -1 0
0.5625 -1 0
0.5 -0.9375 0
0.5625 -0.9375 0
0.5625 -1 0
0.625 -1 0
0.5625 -0.9375 0
0.625 -0.9375 0
0.5 -0.9375 0
0.5625 -0.9375 0
0.5 -0.875 0
0.5625 -0.875 0
0.5625 -0.9375 0
0.625 -0.9375 0
0.5625 -0.875 0
0.625 -0.875 0
0.75 -1 0
0.8125 -1 0
0.75 -0.9375 0
0.8125 -0.9375 0
0.8125 -1 0
0.875 -1 0
0.8125 -0.9375 0
0.875 -0.9375 0
0.75 -0.9375 0
0.8125 -0.9375 0
0.75 -0.875 0
0.8125 -0.875 0
0.8125 -0.9375 0
0.875 -0.9375 0
0.8125 -0.875 0
0.875 -0.875 0
0.875 -1 0
0.9375 -1 0
0.875 -0.9375 0
0.9375 -0.9375 0
0.9375 -1 0
1 -1 0
0.9375 -0.9375 0
1 -0.9375 0
0.875 -0.9375 0
0.9375 -0.9375 0
0.875 -0.875 0
0.9375 -0.875 0
0.9375 -0.9375 0
1 -0.9375 0
0.9375 -0.875 0
1 -0.875 0
0.875 -0.875 0
0.9375 -0.875 0
0.875 -0.8125 0
0.9375 -0.8125 0
0.9375 -0.875 0
1 -0.875 0
0.9375 -0.8125 0
1 -0.8125 0
0.875 -0.8125 0
0.9375 -0.8125 0
0.875 -0.75 0
0.9375 -0.75 0
0.9375 -0.8125 0
1 -0.8125 0
0.9375 -0.75 0
1 -0.75 0
0 -0.125 0
0.0625 -0.125 0
0 -0.0625 0
0.0625 -0.0625 0
0.0625 -0.125 0
0.125 -0.125 0
0.0625 -0.0625 0
0.125 -0.0625 0
0 -0.0625 0
0.0625 -0.0625 0
0 0 0
0.0625 0 0
0.0625 -0.0625 0
0.125 -0.0625 0
0.0625 0 0
0.125 0 0
0.125 -0.125 0
0.1875 -0.125 0
0.125 -0.0625 0
0.1875 -0.0625 0
0.1875 -0.125 0
0.25 -0.125 0
0.1875 -0.0625 0
0.25 -0.0625 0
0.125 -0.0625 0
0.1875 -0.0625 0
0.125 0 0
0.1875 0 0
0.1875 -0.0625 0
0.25 -0.0625 0
0.1875 0 0
0.25 0 0
0.375 -1 0
0.4375 -1 0
0.375 -0.9375 0
0.4375 -0.9375 0
0.4375 -1 0
0.5 -1 0
0.4375 -0.9375 0
0.5 -0.9375 0
0.375 -0.9375 0
0.4375 -0.9375 0
0.375 -0.875 0
0.4375 -0.875 0
0.4375 -0.9375 0
0.5 -0.9375 0
0.4375 -0.875 0
0.5 -0.875 0
0.25 -0.875 0
0.3125 -0.875 0
0.25 -0.8125 0
0.3125 -0.8125 0
0.3125 -0.875 0
0.375 -0.875 0
0.3125 -0.8125 0
0.375 -0.8125 0
0.25 -0.8125 0
0.3125 -0.8125 0
0.25 -0.75 0
0.3125 -0.75 0
0.3125 -0.8125 0
0.375 -0.8125 0
0.3125 -0.75 0
0.375 -0.75 0
0 -0.75 0
0.0625 -0.75 0
0 -0.6875 0
0.0625 -0.6875 0
0.0625 -0.75 0
0.125 -0.75 0
0.0625 -0.6875 0
0.125 -0.6875 0
0 -0.6875 0
0.0625 -0.6875 0
0 -0.625 0
0.0625 -0.625 0
0.0625 -0.6875 0
0.125 -0.6875 0
0.0625 -0.625 0
0.125 -0.625 0
0.125 -0.75 0
0.1875 -0.75 0
0.125 -0.6875 0
0.1875 -0.6875 0
0.1875 -0.75 0
0.25 -0.75 0
0.1875 -0.6875 0
0.25 -0.6875 0
0.125 -0.6875 0
0.1875 -0.6875 0
0.125 -0.625 0
0.1875 -0.625 0
0.1875 -0.6875 0
0.25 -0.6875 0
0.1875 -0.625 0
0.25 -0.625 0
0 -0.625 0
0.0625 -0.625 0
0 -0.5625 0
0.0625 -0.5625 0
0.0625 -0.625 0
0.125 -0.625 0
0.0625 -0.5625 0
0.125 -0.5625 0
0 -0.5625 0
0.0625 -0.5625 0
0 -0.5 0
0.0625 -0.5 0
0.0625 -0.5625 0
0.125 -0.5625 0
0.0625 -0.5 0
0.125 -0.5 0
-0.125 -0.5 0
-0.0625 -0.5 0
-0.125 -0.4375 0
-0.0625 -0.4375 0
-0.0625 -0.5 0
0 -0.5 0
-0.0625 -0.4375 0
0 -0.4375 0
-0.125 -0.4375 0
-0.0625 -0.4375 0
-0.125 -0.375 0
-0.0625 -0.375 0
-0.0625 -0.4375 0
0 -0.4375 0
-0.0625 -0.375 0
0 -0.375 0
-0.125 -0.375 0
-0.0625 -0.375 0
-0.125 -0.3125 0
-0.0625 -0.3125 0
-0.0625 -0.375 0
0 -0.375 0
-0.0625 -0.3125 0
0 -0.3125 0
-0.125 -0.3125 0
-0.0625 -0.3125 0
-0.125 -0.25 0
-0.0625 -0.25 0
-0.0625 -0.3125 0
0 -0.3125 0
-0.0625 -0.25 0
0 -0.25 0
-0.125 -0.25 0
-0.0625 -0.25 0
-0.125 -0.1875 0
-0.0625 -0.1875 0
-0.0625 -0.25 0
0 -0.25 0
-0.0625 -0.1875 0
0 -0.1875 0
-0.125 -0.1875 0
-0.0625 -0.1875 0
-0.125 -0.125 0
-0.0625 -0.125 0
-0.0625 -0.1875 0
0 -0.1875 0
-0.0625 -0.125 0
0 -0.125 0
0.78125 -0.4375 0
0.8125 -0.4375 0
0.78125 -0.40625 0
0.8125 -0.40625 0
0.78125 -0.40625 0
0.8125 -0.40625 0
0.78125 -0.375 0
0.8125 -0.375 0
0.78125 -0.34375 0
0.8125 -0.34375 0
0.78125 -0.3125 0
0.8125 -0.3125 0
0.75 -0.3125 0
0.78125 -0.3125 0
0.75 -0.28125 0
0.78125 -0.28125 0
0.75 -0.28125 0
0.78125 -0.28125 0
0.75 -0.25 0
0.78125 -0.25 0
0.78125 -0.28125 0
0.8125 -0.28125 0
0.78125 -0.25 0
0.8125 -0.25 0
0.8125 -0.3125 0
0.84375 -0.3125 0
0.8125 -0.28125 0
0.84375 -0.28125 0
0.8125 -0.28125 0
0.84375 -0.28125 0
0.8125 -0.25 0
0.84375 -0.25 0
0.9375 -0.375 0
0.96875 -0.375 0
0.9375 -0.34375 0
0.96875 -0.34375 0
0.96875 -0.375 0
1 -0.375 0
0.96875 -0.34375 0
1 -0.34375 0
0.9375 -0.34375 0
0.96875 -0.34375 0
0.9375 -0.3125 0
0.96875 -0.3125 0
0.96875 -0.34375 0
1 -0.34375 0
0.96875 -0.3125 0
1 -0.3125 0
0.9375 -0.3125 0
0.96875 -0.3125 0
0.9375 -0.28125 0
0.96875 -0.28125 0
0.96875 -0.3125 0
1 -0.3125 0
0.96875 -0.28125 0
1 -0.28125 0
0.9375 -0.28125 0
0.96875 -0.28125 0
0.9375 -0.25 0
0.96875 -0.25 0
0.96875 -0.28125 0
1 -0.28125 0
0.96875 -0.25 0
1 -0.25 0
0.59375 -0.25 0
0.625 -0.25 0
0.59375 -0.21875 0
0.625 -0.21875 0
0.5625 -0.21875 0
0.59375 -0.21875 0
0.5625 -0.1875 0
0.59375 -0.1875 0
0.59375 -0.21875 0
0.625 -0.21875 0
0.59375 -0.1875 0
0.625 -0.1875 0
0.65625 -0.25 0
0.6875 -0.25 0
0.65625 -0.21875 0
0.6875 -0.21875 0
0.6875 -0.25 0
0.71875 -0.25 0
0.6875 -0.21875 0
0.71875 -0.21875 0
0.71875 -0.25 0
0.75 -0.25 0
0.71875 -0.21875 0
0.75 -0.21875 0
0.71875 -0.21875 0
0.75 -0.21875 0
0.71875 -0.1875 0
0.75 -0.1875 0
0.71875 -0.1875 0
0.75 -0.1875 0
0.71875 -0.15625 0
0.75 -0.15625 0
0.625 -0.0625 0
0.65625 -0.0625 0
0.625 -0.03125 0
0.65625 -0.03125 0
0.65625 -0.0625 0
0.6875 -0.0625 0
0.65625 -0.03125 0
[...]
POINT_DATA 5076
SCALARS U double 1
LOOKUP_TABLE default
0 0 0 -5.63263e-09 0 0 -5.63263e-09 -4.83502e-06 0 -5.63263e-09 0 1.92135e-09 -5.63263e-09 -4.83502e-06 1.92135e-09 -9.31381e-06 0 0 -4.83502e-06 1.5544e-05 -4.83502e-06 1.5544e-05 -9.31381e-06 4.02003e-05 0 1.92135e-09 0 -3.70881e-07 1.92135e-09 -9.31381e-06 -3.70881e-07 -6.41601e-06 0 -3.70881e-07 0 -3.04831e-07 -3.70881e-07 -6.41601e-06 -3.04831e-07 -2.27416e-06 -9.31381e-06 4.02003e-05 -6.41601e-06 3.87242e-05 -6.41601e-06 3.87242e-05 -2.27416e-06 2.00047e-05 0 -3.04831e-07 0 -1.12655e-07 -3.04831e-07 -2.27416e-06 -1.12655e-07 3.11365e-07 0 -1.12655e-07 0 4.02098e-08 -1.12655e-07 3.11365e-07 4.02098e-08 -1.06063e-07 -2.27416e-06 2.00047e-05 3.11365e-07 -2.08691e-06 2.00047e-05 0 -2.08691e-06 0 3.11365e-07 -2.08691e-06 -1.06063e-07 6.14726e-08 -2.08691e-06 0 6.14726e-08 0 0 4.02098e-08 0 -5.09127e-09 4.02098e-08 -1.06063e-07 -5.09127e-09 2.67549e-08 0 -5.09127e-09 0 0 -5.09127e-09 2.67549e-08 0 0 -1.06063e-07 6.14726e-08 2.67549e-08 2.53463e-08 6.14726e-08 0 2.53463e-08 0 2.67549e-08 2.53463e-08 0 0 2.53463e-08 0 0 0 0 0 0.000466576 0.000773996 4.02003e-05 0.000170437 3.94622e-05 0.000200033 3.94622e-05 0.000200033 3.87242e-05 0.000175613 3.87242e-05 0.000175613 2.93645e-05 9.93358e-05 2.93645e-05 9.93358e-05 2.00047e-05 1.00024e-05 9.93358e-05 0.000304777 1.00024e-05 0 0 0 7.77199e-06 3.53791e-05 0 0 3.53791e-05 0.000105396 7.77199e-06 3.53791e-05 1.5544e-05 7.74876e-05 3.53791e-05 0.000105396 7.74876e-05 0.000224826 1.5544e-05 7.74876e-05 2.78721e-05 0.000126086 7.74876e-05 0.000224826 0.000126086 0.000374133 2.78721e-05 0.000126086 4.02003e-05 0.000170437 0.000126086 0.000374133 0.000170437 0.000506728 0 0 0.000105396 0.000243977 0 0 0.000243977 0.000466576 0.000105396 0.000243977 0.000224826 0.000530469 0.000243977 0.000466576 0.000530469 0.00106531 0.000915841 0 0 0 0.00305892 0.00303912 0.00424274 0.00423335 0.00303912 0.00280408 0.00423335 0.00391423 0.00280408 0.00235183 0.00391423 0.00328295 0.00235183 0.00168895 0.00328295 0.00236276 0.00310709 0.00426451 0.00308844 0.00424952 0.00284861 0.00393182 0.00238709 0.00329985 0.00238709 0.00329985 0.00171507 0.00237457 0.00289562 0.00305892 0.00400581 0.00424274 0.0035891 0.00400581 0.00469124 0.00525949 0.00400581 0.00424274 0.00525949 0.00557249 0.00469124 0.00525949 0.00584507 0.0065543 0.00584507 0.0065543 0.00692441 0.00780159 0.000883512 0 0.00123882 0 0.00236276 0.00123882 0.00312716 0.00164098 0.00123882 0 0.00164098 0 0.00164098 0 0.00206431 0 0.00360929 0.00469911 0.00402782 0.00526835 0.00294455 0.00402782 0.00310709 0.00426451 0.00402782 0.00526835 0.00426451 0.00558191 0.00469911 0.00584732 0.00526835 0.00655751 0.00584732 0.00692441 0.00655751 0.00780258 0.00237457 0.00313188 0.00124491 0.00164331 0.000896624 0.00124491 0 0 0.00124491 0.00164331 0 0 0.00164331 0.00206459 0 0 0.00248925 0.00305522 0.00322341 0.00398778 0.00249996 0.00322341 0.00307177 0.00399315 0.00322341 0.00398778 0.00399315 0.00494486 0.00398778 0.00469124 0.00494486 0.00584507 0.00399315 0.00494486 0.00469911 0.00584732 0.00494486 0.00584507 0.00584732 0.00692441 0 0 0.000600227 0.000588567 0 0 0.000588567 0.00054362 0.000600227 0.000588567 0.00126375 0.00124946 0.000522873 0.000844892 0.000434523 0.000702796 0.000434523 0.000702796 0.000304777 0.000503851 0.000773996 0.000943307 0.00125594 0.00152329 0.00106531 0.00142973 0.00144727 0.00193783 0.00142973 0.00181692 0.00193783 0.00248925 0.00144727 0.00193783 0.00184633 0.00249996 0.00193783 0.00248925 0.00249996 0.00322341 0 0 0.000519052 0.000571822 0 0 0.000571822 0.000600227 0.000519052 0.000571822 0.00109282 0.00120525 0.000571822 0.000600227 0.00120525 0.00126375 0 0 0.00054362 0.000451648 0 0 0.000451648 0.000325295 0.00054362 0.000451648 0.00114758 0.000958074 0.000451648 0.000325295 0.000958074 0.000687218 0 0 0.000325295 0.000169254 0 0 0.000169254 0 0.000325295 0.000169254 0.000687218 0.000358751 0.000169254 0 0.000358751 0 0.000687218 0.000358751 0.00113512 0.000593464 0.000358751 0 0.000593464 0 0.00113512 0.000593464 0.00168895 0.000883512 0.000593464 0 0.000883512 0 0.000304777 0.000503851 0.000152389 0.000260533 0.000503851 0.000780447 0.000260533 0.000409828 0.000152389 0.000260533 0 0 0.000260533 0.000409828 0 0 0.000780447 0.00118846 0.000409828 0.000620084 0.00118846 0.00171507 0.000620084 0.000896624 0.000409828 0.000620084 0 0 0.000620084 0.000896624 0 0 0 0 0.000386998 0.000450016 0 0 0.000450016 0.000519052 0.000386998 0.000450016 0.000773996 0.000943307 0.000450016 0.000519052 0.000943307 0.00109282 0.000466576 0.000620286 0.000765942 0.00099121 0.000620286 0.000773996 0.00099121 0.00125594 0.000765942 0.00099121 0.00106531 0.00142973 0.00099121 0.00125594 0.00142973 0.00181692 0.000224826 0.000377647 0.00029948 0.000474984 0.000377647 0.000530469 0.000474984 0.000717395 0.00029948 0.000474984 0.000374133 0.000594649 0.000474984 0.000717395 0.000594649 0.00089993 0.000530469 0.000797888 0.000717395 0.00103966 0.000797888 0.00106531 0.00103966 0.00144727 0.000717395 0.00103966 0.00089993 0.00131956 0.00103966 0.00144727 0.00131956 0.00184633 0.000374133 0.000594649 0.00044043 0.000712049 0.000594649 0.00089993 0.000712049 0.00109009 0.00044043 0.000712049 0.000506728 0.000819117 0.000712049 0.00109009 0.000819117 0.00125643 0.000170437 0.000338583 0.000185235 0.000341283 0.000338583 0.000506728 0.000341283 0.000565891 0.000185235 0.000341283 0.000200033 0.000350251 0.000341283 0.000565891 0.000350251 0.000586923 0.000200033 0.000350251 0.000187823 0.000342119 0.000350251 0.000586923 0.000342119 0.000572457 0.000187823 0.000342119 0.000175613 0.000308423 0.000342119 0.000572457 0.000308423 0.000522873 0.000175613 0.000308423 0.000137475 0.000256483 0.000308423 0.000522873 0.000256483 0.000434523 0.000137475 0.000256483 9.93358e-05 0.000202057 0.000256483 0.000434523 0.000202057 0.000304777 0.00817613 0.00735952 0.00848381 0.00771326 0.00848381 0.00771326 0.0087558 0.00787401 0.00881545 0.00801643 0.00877861 0.00792839 0.00944633 0.00877861 0.00921058 0.00854398 0.00921058 0.00854398 0.00880704 0.00818864 0.00854398 0.00777981 0.00818864 0.00743998 0.00792839 0.00698689 0.00777981 0.00673232 0.00777981 0.00673232 0.00743998 0.00647778 0.00299511 0.00154137 0.00304963 0.00154412 0.00154137 0 0.00154412 0 0.00304963 0.00154412 0.00301541 0.00155 0.00154412 0 0.00155 0 0.00301541 0.00155 0.00296403 0.00150151 0.00155 0 0.00150151 0 0.00296403 0.00150151 0.00281219 0.00144736 0.00150151 0 0.00144736 0 0.00913063 0.00940216 0.0084806 0.00875326 0.00818263 0.0084806 0.00736052 0.00771832 0.0084806 0.00875326 0.00771832 0.00787913 0.00949797 0.00945062 0.00880525 0.0087704 0.00945062 0.00921244 0.0087704 0.00854527 0.00921244 0.00880704 0.00854527 0.00818999 0.00854527 0.00818999 0.00777076 0.00744254 0.00777076 0.00744254 0.00672496 0.00647995 0.00299608 0.00305054 0.00154187 0.00154458 0.00305054 0.00301622 0.00154458 0.0015504 0.00154187 0.00154458 0 0 0.00154458 0.0015504 0 0 0.00301622 0.00296473 0.0015504 0.00150184 0.00296473 0.00281272 0.00150184 0.00144763 0.0015504 0.00150184 0 0 0.00150184 0.00144763 0 0 0.00818864 0.00743998 0.00760927 0.00692336 0.00818999 0.00760927 0.00744254 0.00692399 0.00743998 0.00647778 0.00692336 0.00598799 0.00744254 0.00692399 0.00647995 0.00598873 0.00281219 0.00144736 0.0026452 0.00133774 0.00144736 0 0.00133774 0 0.0026452 0.00133774 0.00237278 0.00122872 0.00133774 0 0.00122872 0 0.00237278 0.00122872 0.00209294 0.00105209 0.00122872 0 0.00105209 0 0.00209294 0.00105209 0.00171896 0.000896155 0.00105209 0 0.000896155 0 0.00281272 0.00264559 0.00144763 0.00133795 0.00264559 0.00237304 0.00133795 0.00122887 0.00144763 0.00133795 0 0 0.00133795 0.00122887 0 0 0.00237304 0.00209309 0.00122887 0.00105218 0.00209309 0.00171904 0.00105218 0.000896205 0.00122887 0.00105218 0 0 0.00105218 0.000896205 0 0 0.00365918 0.00247378 0.00387707 0.00265729 0.00507818 0.00387707 0.00532674 0.00412675 0.00387707 0.00265729 0.00412675 0.00282449 0.00424035 0.0029453 0.00447477 0.00299511 0.00282449 0.00142192 0.0029453 0.00147181 0.00142192 0 0.00147181 0 0.0029453 0.00147181 0.00299511 0.00154137 0.00147181 0 0.00154137 0 0.0050803 0.00532856 0.00387847 0.00412826 0.00366076 0.00387847 0.00247465 0.00265826 0.00387847 0.00412826 0.00265826 0.00282551 0.00424181 0.00447616 0.00294632 0.00299608 0.00282551 0.00294632 0.00142242 0.00147231 0.00294632 0.00299608 0.00147231 0.00154187 0.00142242 0.00147231 0 0 0.00147231 0.00154187 0 0 0.00171896 0.000896155 0.00135865 0.000667048 0.000896155 0 0.000667048 0 0.00135865 0.000667048 0.000915841 0.00045792 0.000667048 0 0.00045792 0 0.00171904 0.00135867 0.000896205 0.000667068 0.00135867 0.000915841 0.000667068 0.00045792 0.000896205 0.000667068 0 0 0.000667068 0.00045792 0 0 0.00692441 0.007363 0.00736349 0.00790697 0.007363 0.00780159 0.00790697 0.00832465 0.00736349 0.00790697 0.00780258 0.00832516 0.00780159 0.00808907 0.00832465 0.00863784 0.00808907 0.00833304 0.00863784 0.00889368 0.00832465 0.00863784 0.00882171 0.00914609 0.00863784 0.00889368 0.00914609 0.00942626 0.00780258 0.00832516 0.0080908 0.00863897 0.00832516 0.00882171 0.00863897 0.00914671 0.0080908 0.00863897 0.00833591 0.00889487 0.00863897 0.00914671 0.00889487 0.00942621 0.00424274 0.00423805 0.00490762 0.00492171 0.00423805 0.00423335 0.00492171 0.00485578 0.00490762 0.00492171 0.00557249 0.00559181 0.00492171 0.00485578 0.00559181 0.0055589 0.00423335 0.00407379 0.00485578 0.00472597 0.00407379 0.00391423 0.00472597 0.00448818 0.00697765 0.00699983 0.00762702 0.00774524 0.00882171 0.00914609 0.00914671 0.00948285 0.00914609 0.00942626 0.00948285 0.00977592 0.00914671 0.00948285 0.00942621 0.0097764 0.00948285 0.00977592 0.0097764 0.0100827 0.00833304 0.00835552 0.00889368 0.00892803 0.00835552 0.00834872 0.00892803 0.00891449 0.00889368 0.00892803 0.00942626 0.00946352 0.00892803 0.00891449 0.00946352 0.00945288 0.00391423 0.00359859 0.00448818 0.00419363 0.00359859 0.00328295 0.00419363 0.00376396 0.00448818 0.00419363 0.00514566 0.00476044 0.00328295 0.00282286 0.00376396 0.0032977 0.00282286 0.00236276 0.0032977 0.00274496 0.00376396 0.0032977 0.00433732 0.00374672 0.0032977 0.00274496 0.00374672 0.00312716 0.00647461 0.00598313 0.00708231 0.00662656 0.00834872 0.00807298 0.00891449 0.00863224 0.00807298 0.00774666 0.00863224 0.00828465 0.00891449 0.00863224 0.00945288 0.00915493 0.00863224 0.00828465 0.00915493 0.00879501 0.00426451 0.00492321 0.00425701 0.00493631 0.00492321 0.00558191 0.00493631 0.00560216 0.00425701 0.00493631 0.00424952 0.00487147 0.00493631 0.00560216 0.00487147 0.00557009 0.00308844 0.00366898 0.00298957 0.00353327 0.00366898 0.00424952 0.00353327 0.00413864 0.00298957 0.00353327 0.00284861 0.00339022 0.00353327 0.00413864 0.00339022 0.00393182 0.00424952 0.00487147 0.00413864 0.0047426 0.00698175 0.00762958 0.00700387 0.00774864 0.00942626 0.00946352 0.00977592 0.00981886 0.00946352 0.00945288 0.00981886 0.00981328 0.00977592 0.00981886 0.0100827 0.0101315 0.00981886 0.00981328 0.0101315 0.0101312 0.00393182 0.00450188 0.00361584 0.00419403 0.00361584 0.00419403 0.00329985 0.00377817 0.00945288 0.00915493 0.00981328 0.00950487 0.00915493 0.00879501 0.00950487 0.00913253 0.00981328 0.00950487 0.0101312 0.00980135 0.00950487 0.00913253 0.00980135 0.00942661 0.00329985 0.00377817 0.00283721 0.00330779 0.00377817 0.00433344 0.00330779 0.0037537 0.00283721 0.00330779 0.00237457 0.00275323 0.00330779 0.0037537 0.00275323 0.00313188 0.00833591 0.00889487 0.00835778 0.0089303 0.00889487 0.00942621 0.0089303 0.0094666 0.00835778 0.0089303 0.00835028 0.00891843 0.0089303 0.0094666 0.00891843 0.00945841 0.00942621 0.0097764 0.0094666 0.0098219 0.0097764 0.0100827 0.0098219 0.0101336 0.0094666 0.0098219 0.00945841 0.00980783 0.0098219 0.0101336 0.00980783 0.0101249 0.00835028 0.00891843 0.00807581 0.00863747 0.00891843 0.00945841 0.00863747 0.00915143 0.00807581 0.00863747 0.00775093 0.00828956 0.00863747 0.00915143 0.00828956 0.00879557 0.0100827 0.0101315 0.0101336 0.0101851 0.0101315 0.0101312 0.0101851 0.0101735 0.0101336 0.0101851 0.0101249 0.0101728 0.0101851 0.0101735 0.0101728 0.0101715 0.00525949 0.00541599 0.00590689 0.0061055 0.00541599 0.00557249 0.0061055 0.00628044 0.00590689 0.0061055 0.0065543 0.00681728 0.00247378 0.00124593 0.00265729 0.00133772 0.00124593 0 0.00133772 0 0.00265729 0.00133772 0.00282449 0.00142192 0.00133772 0 0.00142192 0 0.0065543 0.00681728 0.00717794 0.00747786 0.00717794 0.00747786 0.00780159 0.00808907 0.00247465 0.00265826 0.00124632 0.00133817 0.00265826 0.00282551 0.00133817 0.00142242 0.00124632 0.00133817 0 0 0.00133817 0.00142242 0 0 0.00312716 0.00238407 0.00353575 0.00270407 0.00238407 0.00164098 0.00270407 0.00185264 0.00353575 0.00270407 0.00393484 0.00304891 0.00270407 0.00185264 0.00304891 0.00206431 0.00304891 0.00206431 0.00333858 0.00225466 0.00206431 0.00103215 0.00225466 0.0011641 0.00103215 0 0.0011641 0 0.00225466 0.0011641 0.00247378 0.00124593 0.0011641 0 0.00124593 0 0.00557249 0.00559181 0.00628044 0.00630404 0.00559181 0.0055589 0.00630404 0.0062719 0.00628044 0.00630404 0.00697765 0.00699983 0.00630404 0.0062719 0.00699983 0.00697169 0.00514566 0.00476044 0.00581555 0.00537862 0.00476044 0.00433732 0.00537862 0.00489574 0.00581555 0.00537862 0.00647461 0.00598313 0.00537862 0.00489574 0.00598313 0.00545311 0.00433732 0.00374672 0.00489574 0.00423516 0.00374672 0.00312716 0.00423516 0.00353575 0.00489574 0.00423516 0.00545311 0.00471894 0.00423516 0.00353575 0.00471894 0.00393484 0.00545311 0.00471894 0.00599787 0.0051986 0.00471894 0.00393484 0.0051986 0.00434239 0.00599787 0.0051986 0.00651753 0.00565148 0.0051986 0.00434239 0.00565148 0.00472343 0.00558191 0.00628684 0.00560216 0.00631097 0.00628684 0.00698175 0.00631097 0.00700387 0.00560216 0.00631097 0.00557009 0.00627779 0.00631097 0.00700387 0.00627779 0.00697504 0.00526835 0.00591293 0.00542513 0.00611137 0.00591293 0.00655751 0.00611137 0.00682112 0.00542513 0.00611137 0.00558191 0.00628684 0.00655751 0.00718004 0.00682112 0.00748002 0.00718004 0.00780258 0.00748002 0.0080908 0.00433344 0.00489476 0.0037537 0.00424137 0.00489476 0.0054433 0.00424137 0.0047228 0.0037537 0.00424137 0.00313188 0.00354043 0.00424137 0.0047228 0.00354043 0.00394088 0.00313188 0.00354043 0.0023876 0.00270673 0.0023876 0.00270673 0.00164331 0.00185395 0.00270673 0.003053 0.00185395 0.00206459 0.003053 0.00333922 0.00206459 0.00225538 0.00206459 0.00225538 0.00103229 0.00116447 0.00225538 0.00247465 0.00116447 0.00124632 0.00103229 0.00116447 0 0 0.00116447 0.00124632 0 0 0.0054433 0.00599804 0.0047228 0.0052023 0.00599804 0.00652408 0.0052023 0.00565448 0.0047228 0.0052023 0.00394088 0.00434417 0.0052023 0.00565448 0.00434417 0.00472459 0.00260019 0.00275621 0.00308764 0.00327893 0.00275621 0.00289562 0.00327893 0.00345071 0.00308764 0.00327893 0.0035891 0.00379745 0.00327893 0.00345071 0.00379745 0.00400581 0.00168895 0.00128623 0.00202586 0.0015543 0.00128623 0.000883512 0.0015543 0.00106117 0.00202586 0.0015543 0.00236276 0.00180079 0.0015543 0.00106117 0.00180079 0.00123882 0.00264462 0.00311859 0.00280302 0.00331161 0.00311859 0.00360929 0.00331161 0.00381855 0.00280302 0.00331161 0.00294455 0.00348618 0.00331161 0.00381855 0.00348618 0.00402782 0.00171507 0.00204482 0.00130585 0.00156808 0.00204482 0.00237457 0.00156808 0.00180974 0.00130585 0.00156808 0.000896624 0.00107077 0.00156808 0.00180974 0.00107077 0.00124491 0.00181692 0.002024 0.00215309 0.00239594 0.002024 0.00222814 0.00239594 0.00263596 0.00215309 0.00239594 0.00248925 0.00277223 0.00239594 0.00263596 0.00277223 0.00305522 0.00222814 0.00241685 0.00263596 0.00286895 0.00241685 0.00260019 0.00286895 0.00308764 0.00263596 0.00286895 0.00305522 0.00332722 0.00286895 0.00308764 0.00332722 0.0035891 0.00305522 0.00332722 0.0035215 0.00384058 0.00332722 0.0035891 0.00384058 0.00414017 0.0035215 0.00384058 0.00398778 0.00433951 0.00384058 0.00414017 0.00433951 0.00469124 0.00184633 0.00217314 0.00205895 0.00241918 0.00217314 0.00249996 0.00241918 0.00278587 0.00205895 0.00241918 0.00226722 0.00266237 0.00241918 0.00278587 0.00266237 0.00307177 0.00226722 0.00266237 0.00245889 0.00289794 0.00266237 0.00307177 0.00289794 0.00334614 0.00245889 0.00289794 0.00264462 0.00311859 0.00289794 0.00334614 0.00311859 0.00360929 0.00307177 0.00353246 0.00334614 0.00385284 0.00353246 0.00399315 0.00385284 0.00434613 0.00334614 0.00385284 0.00360929 0.0041542 0.00385284 0.00434613 0.0041542 0.00469911 0.000588567 0.000566093 0.000919012 0.000884347 0.000566093 0.00054362 0.000884347 0.0008456 0.000919012 0.000884347 0.00124946 0.0012035 0.000884347 0.0008456 0.0012035 0.00114758 0.00109282 0.00114903 0.00142576 0.00150556 0.00114903 0.00120525 0.00150556 0.00157631 0.00142576 0.00150556 0.00177083 0.00187156 0.00150556 0.00157631 0.00187156 0.00196197 0.00120525 0.0012345 0.00157631 0.00162294 0.0012345 0.00126375 0.00162294 0.00165554 0.00157631 0.00162294 0.00196197 0.00201818 0.00162294 0.00165554 0.00201818 0.00206011 0.00177083 0.00187156 0.00218154 0.00230847 0.00187156 0.00196197 0.00230847 0.00241867 0.00218154 0.00230847 0.00260019 0.00275621 0.00230847 0.00241867 0.00275621 0.00289562 0.00196197 0.00201818 0.00241867 0.00249042 0.00201818 0.00206011 0.00249042 0.00254763 0.00241867 0.00249042 0.00289562 0.00297727 0.00249042 0.00254763 0.00297727 0.00305892 0.00126375 0.00125661 0.00165554 0.00165261 0.00125661 0.00124946 0.00165261 0.00163872 0.00165554 0.00165261 0.00206011 0.0020592 0.00165261 0.00163872 0.0020592 0.00204059 0.00124946 0.0012035 0.00163872 0.00158142 0.0012035 0.00114758 0.00158142 0.00150851 0.00163872 0.00158142 0.00204059 0.00196923 0.00158142 0.00150851 0.00196923 0.00187879 0.00206011 0.0020592 0.00254763 0.00254756 0.0020592 0.00204059 0.00254756 0.0025275 0.00254763 0.00254756 0.00305892 0.00304902 0.00254756 0.0025275 0.00304902 0.00303912 0.00204059 0.00196923 0.0025275 0.00244019 0.00196923 0.00187879 0.00244019 0.00233004 0.0025275 0.00244019 0.00303912 0.0029216 0.00244019 0.00233004 0.0029216 0.00280408 0.00114758 0.00105283 0.00150851 0.00139252 0.00105283 0.000958074 0.00139252 0.00125897 0.00150851 0.00139252 0.00187879 0.00173581 0.00139252 0.00125897 0.00173581 0.00157015 0.000958074 0.000822646 0.00125897 0.00109008 0.000822646 0.000687218 0.00109008 0.000911167 0.00125897 0.00109008 0.00157015 0.00136214 0.00109008 0.000911167 0.00136214 0.00113512 0.00187879 0.00173581 0.00233004 0.00215082 0.00173581 0.00157015 0.00215082 0.00194966 0.00233004 0.00215082 0.00280408 0.00257796 0.00215082 0.00194966 0.00257796 0.00235183 0.00157015 0.00136214 0.00194966 0.00168549 0.00136214 0.00113512 0.00168549 0.00141203 0.00194966 0.00168549 0.00235183 0.00202039 0.00168549 0.00141203 0.00202039 0.00168895 0.000506728 0.000662922 0.00053631 0.000692522 0.000662922 0.000819117 0.000692522 0.000864793 0.00053631 0.000692522 0.000565891 0.000723189 0.000692522 0.000864793 0.000723189 0.000898905 0.000819117 0.00103777 0.000864793 0.00108725 0.00103777 0.00125643 0.00108725 0.00132779 0.000864793 0.00108725 0.000898905 0.00113495 0.00108725 0.00132779 0.00113495 0.00138994 0.000565891 0.000723189 0.000576407 0.000742419 0.000723189 0.000898905 0.000742419 0.000923532 0.000576407 0.000742419 0.000586923 0.000753789 0.000742419 0.000923532 0.000753789 0.000937481 0.000898905 0.00113495 0.000923532 0.00116575 0.00113495 0.00138994 0.00116575 0.00142623 0.000923532 0.00116575 0.000937481 0.00118649 0.00116575 0.00142623 0.00118649 0.00145302 0.00125643 0.00155109 0.00132779 0.00163861 0.00155109 0.00186078 0.00163861 0.0019658 0.00132779 0.00163861 0.00138994 0.00171615 0.00163861 0.0019658 0.00171615 0.00205966 0.00186078 0.00224604 0.0019658 0.00237671 0.00224604 0.00264462 0.00237671 0.00280302 0.0019658 0.00237671 0.00205966 0.00248996 0.00237671 0.00280302 0.00248996 0.00294455 0.00138994 0.00171615 0.00142623 0.00176419 0.00171615 0.00205966 0.00176419 0.00211892 0.00142623 0.00176419 0.00145302 0.00180034 0.001