<?xml version="1.0" ?> 
<!-- 
# vtk DataFile Version 3.0
#This file was generated by the deal.II library on 21:46:18 at 2021/4/29
-->
<VTKFile type="UnstructuredGrid" version="0.1" byte_order="LittleEndian">
<UnstructuredGrid>
<Piece NumberOfPoints="65536" NumberOfCells="16384" >
  <Points>
    <DataArray type="Float32" NumberOfComponents="3" format="ascii">
-1 -1 0
-0.984375 -1 0
-1 -0.984375 0
-0.984375 -0.984375 0
-0.984375 -1 0
-0.96875 -1 0
-0.984375 -0.984375 0
-0.96875 -0.984375 0
-1 -0.984375 0
-0.984375 -0.984375 0
-1 -0.96875 0
-0.984375 -0.96875 0
-0.984375 -0.984375 0
-0.96875 -0.984375 0
-0.984375 -0.96875 0
-0.96875 -0.96875 0
-0.96875 -1 0
-0.953125 -1 0
-0.96875 -0.984375 0
-0.953125 -0.984375 0
-0.953125 -1 0
-0.9375 -1 0
-0.953125 -0.984375 0
-0.9375 -0.984375 0
-0.96875 -0.984375 0
-0.953125 -0.984375 0
-0.96875 -0.96875 0
-0.953125 -0.96875 0
-0.953125 -0.984375 0
-0.9375 -0.984375 0
-0.953125 -0.96875 0
-0.9375 -0.96875 0
-1 -0.96875 0
-0.984375 -0.96875 0
-1 -0.953125 0
-0.984375 -0.953125 0
-0.984375 -0.96875 0
-0.96875 -0.96875 0
-0.984375 -0.953125 0
-0.96875 -0.953125 0
-1 -0.953125 0
-0.984375 -0.953125 0
-1 -0.9375 0
-0.984375 -0.9375 0
-0.984375 -0.953125 0
-0.96875 -0.953125 0
-0.984375 -0.9375 0
-0.96875 -0.9375 0
-0.96875 -0.96875 0
-0.953125 -0.96875 0
-0.96875 -0.953125 0
-0.953125 -0.953125 0
-0.953125 -0.96875 0
-0.9375 -0.96875 0
-0.953125 -0.953125 0
-0.9375 -0.953125 0
-0.96875 -0.953125 0
-0.953125 -0.953125 0
-0.96875 -0.9375 0
-0.953125 -0.9375 0
-0.953125 -0.953125 0
-0.9375 -0.953125 0
-0.953125 -0.9375 0
-0.9375 -0.9375 0
-0.9375 -1 0
-0.921875 -1 0
-0.9375 -0.984375 0
-0.921875 -0.984375 0
-0.921875 -1 0
-0.90625 -1 0
-0.921875 -0.984375 0
-0.90625 -0.984375 0
-0.9375 -0.984375 0
-0.921875 -0.984375 0
-0.9375 -0.96875 0
-0.921875 -0.96875 0
-0.921875 -0.984375 0
-0.90625 -0.984375 0
-0.921875 -0.96875 0
-0.90625 -0.96875 0
-0.90625 -1 0
-0.890625 -1 0
-0.90625 -0.984375 0
-0.890625 -0.984375 0
-0.890625 -1 0
-0.875 -1 0
-0.890625 -0.984375 0
-0.875 -0.984375 0
-0.90625 -0.984375 0
-0.890625 -0.984375 0
-0.90625 -0.96875 0
-0.890625 -0.96875 0
-0.890625 -0.984375 0
-0.875 -0.984375 0
-0.890625 -0.96875 0
-0.875 -0.96875 0
-0.9375 -0.96875 0
-0.921875 -0.96875 0
-0.9375 -0.953125 0
-0.921875 -0.953125 0
-0.921875 -0.96875 0
-0.90625 -0.96875 0
-0.921875 -0.953125 0
-0.90625 -0.953125 0
-0.9375 -0.953125 0
-0.921875 -0.953125 0
-0.9375 -0.9375 0
-0.921875 -0.9375 0
-0.921875 -0.953125 0
-0.90625 -0.953125 0
-0.921875 -0.9375 0
-0.90625 -0.9375 0
-0.90625 -0.96875 0
-0.890625 -0.96875 0
-0.90625 -0.953125 0
-0.890625 -0.953125 0
-0.890625 -0.96875 0
-0.875 -0.96875 0
-0.890625 -0.953125 0
-0.875 -0.953125 0
-0.90625 -0.953125 0
-0.890625 -0.953125 0
-0.90625 -0.9375 0
-0.890625 -0.9375 0
-0.890625 -0.953125 0
-0.875 -0.953125 0
-0.890625 -0.9375 0
-0.875 -0.9375 0
-1 -0.9375 0
-0.984375 -0.9375 0
-1 -0.921875 0
-0.984375 -0.921875 0
-0.984375 -0.9375 0
-0.96875 -0.9375 0
-0.984375 -0.921875 0
-0.96875 -0.921875 0
-1 -0.921875 0
-0.984375 -0.921875 0
-1 -0.90625 0
-0.984375 -0.90625 0
-0.984375 -0.921875 0
-0.96875 -0.921875 0
-0.984375 -0.90625 0
-0.96875 -0.90625 0
-0.96875 -0.9375 0
-0.953125 -0.9375 0
-0.96875 -0.921875 0
-0.953125 -0.921875 0
-0.953125 -0.9375 0
-0.9375 -0.9375 0
-0.953125 -0.921875 0
-0.9375 -0.921875 0
-0.96875 -0.921875 0
-0.953125 -0.921875 0
-0.96875 -0.90625 0
-0.953125 -0.90625 0
-0.953125 -0.921875 0
-0.9375 -0.921875 0
-0.953125 -0.90625 0
-0.9375 -0.90625 0
-1 -0.90625 0
-0.984375 -0.90625 0
-1 -0.890625 0
-0.984375 -0.890625 0
-0.984375 -0.90625 0
-0.96875 -0.90625 0
-0.984375 -0.890625 0
-0.96875 -0.890625 0
-1 -0.890625 0
-0.984375 -0.890625 0
-1 -0.875 0
-0.984375 -0.875 0
-0.984375 -0.890625 0
-0.96875 -0.890625 0
-0.984375 -0.875 0
-0.96875 -0.875 0
-0.96875 -0.90625 0
-0.953125 -0.90625 0
-0.96875 -0.890625 0
-0.953125 -0.890625 0
-0.953125 -0.90625 0
-0.9375 -0.90625 0
-0.953125 -0.890625 0
-0.9375 -0.890625 0
-0.96875 -0.890625 0
-0.953125 -0.890625 0
-0.96875 -0.875 0
-0.953125 -0.875 0
-0.953125 -0.890625 0
-0.9375 -0.890625 0
-0.953125 -0.875 0
-0.9375 -0.875 0
-0.9375 -0.9375 0
-0.921875 -0.9375 0
-0.9375 -0.921875 0
-0.921875 -0.921875 0
-0.921875 -0.9375 0
-0.90625 -0.9375 0
-0.921875 -0.921875 0
-0.90625 -0.921875 0
-0.9375 -0.921875 0
-0.921875 -0.921875 0
-0.9375 -0.90625 0
-0.921875 -0.90625 0
-0.921875 -0.921875 0
-0.90625 -0.921875 0
-0.921875 -0.90625 0
-0.90625 -0.90625 0
-0.90625 -0.9375 0
-0.890625 -0.9375 0
-0.90625 -0.921875 0
-0.890625 -0.921875 0
-0.890625 -0.9375 0
-0.875 -0.9375 0
-0.890625 -0.921875 0
-0.875 -0.921875 0
-0.90625 -0.921875 0
-0.890625 -0.921875 0
-0.90625 -0.90625 0
-0.890625 -0.90625 0
-0.890625 -0.921875 0
-0.875 -0.921875 0
-0.890625 -0.90625 0
-0.875 -0.90625 0
-0.9375 -0.90625 0
-0.921875 -0.90625 0
-0.9375 -0.890625 0
-0.921875 -0.890625 0
-0.921875 -0.90625 0
-0.90625 -0.90625 0
-0.921875 -0.890625 0
-0.90625 -0.890625 0
-0.9375 -0.890625 0
-0.921875 -0.890625 0
-0.9375 -0.875 0
-0.921875 -0.875 0
-0.921875 -0.890625 0
-0.90625 -0.890625 0
-0.921875 -0.875 0
-0.90625 -0.875 0
-0.90625 -0.90625 0
-0.890625 -0.90625 0
-0.90625 -0.890625 0
-0.890625 -0.890625 0
-0.890625 -0.90625 0
-0.875 -0.90625 0
-0.890625 -0.890625 0
-0.875 -0.890625 0
-0.90625 -0.890625 0
-0.890625 -0.890625 0
-0.90625 -0.875 0
-0.890625 -0.875 0
-0.890625 -0.890625 0
-0.875 -0.890625 0
-0.890625 -0.875 0
-0.875 -0.875 0
-0.875 -1 0
-0.859375 -1 0
-0.875 -0.984375 0
-0.859375 -0.984375 0
-0.859375 -1 0
-0.84375 -1 0
-0.859375 -0.984375 0
-0.84375 -0.984375 0
-0.875 -0.984375 0
-0.859375 -0.984375 0
-0.875 -0.96875 0
-0.859375 -0.96875 0
-0.859375 -0.984375 0
-0.84375 -0.984375 0
-0.859375 -0.96875 0
-0.84375 -0.96875 0
-0.84375 -1 0
-0.828125 -1 0
-0.84375 -0.984375 0
-0.828125 -0.984375 0
-0.828125 -1 0
-0.8125 -1 0
-0.828125 -0.984375 0
-0.8125 -0.984375 0
-0.84375 -0.984375 0
-0.828125 -0.984375 0
-0.84375 -0.96875 0
-0.828125 -0.96875 0
-0.828125 -0.984375 0
-0.8125 -0.984375 0
-0.828125 -0.96875 0
-0.8125 -0.96875 0
-0.875 -0.96875 0
-0.859375 -0.96875 0
-0.875 -0.953125 0
-0.859375 -0.953125 0
-0.859375 -0.96875 0
-0.84375 -0.96875 0
-0.859375 -0.953125 0
-0.84375 -0.953125 0
-0.875 -0.953125 0
-0.859375 -0.953125 0
-0.875 -0.9375 0
-0.859375 -0.9375 0
-0.859375 -0.953125 0
-0.84375 -0.953125 0
-0.859375 -0.9375 0
-0.84375 -0.9375 0
-0.84375 -0.96875 0
-0.828125 -0.96875 0
-0.84375 -0.953125 0
-0.828125 -0.953125 0
-0.828125 -0.96875 0
-0.8125 -0.96875 0
-0.828125 -0.953125 0
-0.8125 -0.953125 0
-0.84375 -0.953125 0
-0.828125 -0.953125 0
-0.84375 -0.9375 0
-0.828125 -0.9375 0
-0.828125 -0.953125 0
-0.8125 -0.953125 0
-0.828125 -0.9375 0
-0.8125 -0.9375 0
-0.8125 -1 0
-0.796875 -1 0
-0.8125 -0.984375 0
-0.796875 -0.984375 0
-0.796875 -1 0
-0.78125 -1 0
-0.796875 -0.984375 0
-0.78125 -0.984375 0
-0.8125 -0.984375 0
-0.796875 -0.984375 0
-0.8125 -0.96875 0
-0.796875 -0.96875 0
-0.796875 -0.984375 0
-0.78125 -0.984375 0
-0.796875 -0.96875 0
-0.78125 -0.96875 0
-0.78125 -1 0
-0.765625 -1 0
-0.78125 -0.984375 0
-0.765625 -0.984375 0
-0.765625 -1 0
-0.75 -1 0
-0.765625 -0.984375 0
-0.75 -0.984375 0
-0.78125 -0.984375 0
-0.765625 -0.984375 0
-0.78125 -0.96875 0
-0.765625 -0.96875 0
-0.765625 -0.984375 0
-0.75 -0.984375 0
-0.765625 -0.96875 0
-0.75 -0.96875 0
-0.8125 -0.96875 0
-0.796875 -0.96875 0
-0.8125 -0.953125 0
-0.796875 -0.953125 0
-0.796875 -0.96875 0
-0.78125 -0.96875 0
-0.796875 -0.953125 0
-0.78125 -0.953125 0
-0.8125 -0.953125 0
-0.796875 -0.953125 0
-0.8125 -0.9375 0
-0.796875 -0.9375 0
-0.796875 -0.953125 0
-0.78125 -0.953125 0
-0.796875 -0.9375 0
-0.78125 -0.9375 0
-0.78125 -0.96875 0
-0.765625 -0.96875 0
-0.78125 -0.953125 0
-0.765625 -0.953125 0
-0.765625 -0.96875 0
-0.75 -0.96875 0
-0.765625 -0.953125 0
-0.75 -0.953125 0
-0.78125 -0.953125 0
-0.765625 -0.953125 0
-0.78125 -0.9375 0
-0.765625 -0.9375 0
-0.765625 -0.953125 0
-0.75 -0.953125 0
-0.765625 -0.9375 0
-0.75 -0.9375 0
-0.875 -0.9375 0
-0.859375 -0.9375 0
-0.875 -0.921875 0
-0.859375 -0.921875 0
-0.859375 -0.9375 0
-0.84375 -0.9375 0
-0.859375 -0.921875 0
-0.84375 -0.921875 0
-0.875 -0.921875 0
-0.859375 -0.921875 0
-0.875 -0.90625 0
-0.859375 -0.90625 0
-0.859375 -0.921875 0
-0.84375 -0.921875 0
-0.859375 -0.90625 0
-0.84375 -0.90625 0
-0.84375 -0.9375 0
-0.828125 -0.9375 0
-0.84375 -0.921875 0
-0.828125 -0.921875 0
-0.828125 -0.9375 0
-0.8125 -0.9375 0
-0.828125 -0.921875 0
-0.8125 -0.921875 0
-0.84375 -0.921875 0
-0.828125 -0.921875 0
-0.84375 -0.90625 0
-0.828125 -0.90625 0
-0.828125 -0.921875 0
-0.8125 -0.921875 0
-0.828125 -0.90625 0
-0.8125 -0.90625 0
-0.875 -0.90625 0
-0.859375 -0.90625 0
-0.875 -0.890625 0
-0.859375 -0.890625 0
-0.859375 -0.90625 0
-0.84375 -0.90625 0
-0.859375 -0.890625 0
-0.84375 -0.890625 0
-0.875 -0.890625 0
-0.859375 -0.890625 0
-0.875 -0.875 0
-0.859375 -0.875 0
-0.859375 -0.890625 0
-0.84375 -0.890625 0
-0.859375 -0.875 0
-0.84375 -0.875 0
-0.84375 -0.90625 0
-0.828125 -0.90625 0
-0.84375 -0.890625 0
-0.828125 -0.890625 0
-0.828125 -0.90625 0
-0.8125 -0.90625 0
-0.828125 -0.890625 0
-0.8125 -0.890625 0
-0.84375 -0.890625 0
-0.828125 -0.890625 0
-0.84375 -0.875 0
-0.828125 -0.875 0
-0.828125 -0.890625 0
-0.8125 -0.890625 0
-0.828125 -0.875 0
-0.8125 -0.875 0
-0.8125 -0.9375 0
-0.796875 -0.9375 0
-0.8125 -0.921875 0
-0.796875 -0.921875 0
-0.796875 -0.9375 0
-0.78125 -0.9375 0
-0.796875 -0.921875 0
-0.78125 -0.921875 0
-0.8125 -0.921875 0
-0.796875 -0.921875 0
-0.8125 -0.90625 0
-0.796875 -0.90625 0
-0.796875 -0.921875 0
-0.78125 -0.921875 0
-0.796875 -0.90625 0
-0.78125 -0.90625 0
-0.78125 -0.9375 0
-0.765625 -0.9375 0
-0.78125 -0.921875 0
-0.765625 -0.921875 0
-0.765625 -0.9375 0
-0.75 -0.9375 0
-0.765625 -0.921875 0
-0.75 -0.921875 0
-0.78125 -0.921875 0
-0.765625 -0.921875 0
-0.78125 -0.90625 0
-0.765625 -0.90625 0
-0.765625 -0.921875 0
-0.75 -0.921875 0
-0.765625 -0.90625 0
-0.75 -0.90625 0
-0.8125 -0.90625 0
-0.796875 -0.90625 0
-0.8125 -0.890625 0
-0.796875 -0.890625 0
-0.796875 -0.90625 0
[...]
  <PointData Scalars="scalars">
    <DataArray type="Float32" Name="U" format="ascii">
0 0 0 0.008948 0 0 0.008948 0.0177588 0 0.008948 0 0.0178576 0.008948 0.0177588 0.0178576 0.0354284 0 0 0.0177588 0.026127 0 0 0.026127 0.0334906 0.0177588 0.026127 0.0354284 0.0521334 0.026127 0.0334906 0.0521334 0.0668003 0 0.0178576 0 0.0266777 0.0178576 0.0354284 0.0266777 0.0529341 0 0.0266777 0 0.0353959 0.0266777 0.0529341 0.0353959 0.0702161 0.0354284 0.0521334 0.0529341 0.0778578 0.0521334 0.0668003 0.0778578 0.0997702 0.0529341 0.0778578 0.0702161 0.103266 0.0778578 0.0997702 0.103266 0.132288 0 0 0.0334906 0.0389671 0 0 0.0389671 0.041568 0.0334906 0.0389671 0.0668003 0.0777427 0.0389671 0.041568 0.0777427 0.0829115 0 0 0.041568 0.0404599 0 0 0.0404599 0.035457 0.041568 0.0404599 0.0829115 0.0807484 0.0404599 0.035457 0.0807484 0.0707815 0.0668003 0.0777427 0.0997702 0.116067 0.0777427 0.0829115 0.116067 0.123837 0.0997702 0.116067 0.132288 0.153904 0.116067 0.123837 0.153904 0.164223 0.0829115 0.0807484 0.123837 0.120627 0.0807484 0.0707815 0.120627 0.105921 0.123837 0.120627 0.164223 0.160126 0.120627 0.105921 0.160126 0.140821 0 0.0353959 0 0.0439491 0.0353959 0.0702161 0.0439491 0.0871557 0 0.0439491 0 0.0523105 0.0439491 0.0871557 0.0523105 0.103737 0.0702161 0.103266 0.0871557 0.128158 0.103266 0.132288 0.128158 0.16411 0.0871557 0.128158 0.103737 0.152465 0.128158 0.16411 0.152465 0.195222 0 0.0523105 0 0.0604537 0.0523105 0.103737 0.0604537 0.11985 0 0.0604537 0 0.0683285 0.0604537 0.11985 0.0683285 0.135422 0.103737 0.152465 0.11985 0.176103 0.152465 0.195222 0.176103 0.225397 0.11985 0.176103 0.135422 0.198939 0.176103 0.225397 0.198939 0.25453 0.132288 0.153904 0.16411 0.190923 0.153904 0.164223 0.190923 0.203752 0.16411 0.190923 0.195222 0.227048 0.190923 0.203752 0.227048 0.242456 0.164223 0.160126 0.203752 0.19889 0.160126 0.140821 0.19889 0.175285 0.203752 0.19889 0.242456 0.236902 0.19889 0.175285 0.236902 0.209435 0.195222 0.227048 0.225397 0.26214 0.227048 0.242456 0.26214 0.28001 0.225397 0.26214 0.25453 0.296029 0.26214 0.28001 0.296029 0.316355 0.242456 0.236902 0.28001 0.274027 0.236902 0.209435 0.274027 0.242964 0.28001 0.274027 0.316355 0.310132 0.274027 0.242964 0.310132 0.275933 0 0 0.035457 0.0272261 0 0 0.0272261 0.017275 0.035457 0.0272261 0.0707815 0.0544318 0.0272261 0.017275 0.0544318 0.0345893 0 0 0.017275 0.00740314 0 0 0.00740314 -0.00102822 0.017275 0.00740314 0.0345893 0.0148937 0.00740314 -0.00102822 0.0148937 -0.0019952 0.0707815 0.0544318 0.105921 0.0816187 0.0544318 0.0345893 0.0816187 0.0521979 0.105921 0.0816187 0.140821 0.10893 0.0816187 0.0521979 0.10893 0.0700862 0.0345893 0.0148937 0.0521979 0.0227799 0.0148937 -0.0019952 0.0227799 -0.00247958 0.0521979 0.0227799 0.0700862 0.0311779 0.0227799 -0.00247958 0.0311779 -0.00264214 0 0 -0.00102822 -0.00761387 0 0 -0.00761387 -0.013002 -0.00102822 -0.00761387 -0.0019952 -0.0152459 -0.00761387 -0.013002 -0.0152459 -0.0260447 0 0 -0.013002 -0.0180626 0 0 -0.0180626 -0.0233058 -0.013002 -0.0180626 -0.0260447 -0.0362081 -0.0180626 -0.0233058 -0.0362081 -0.0465089 -0.0019952 -0.0152459 -0.00247958 -0.022578 -0.0152459 -0.0260447 -0.022578 -0.0389805 -0.00247958 -0.022578 -0.00264214 -0.0296633 -0.022578 -0.0389805 -0.0296633 -0.0520234 -0.0260447 -0.0362081 -0.0389805 -0.0544766 -0.0362081 -0.0465089 -0.0544766 -0.0699529 -0.0389805 -0.0544766 -0.0520234 -0.0727499 -0.0544766 -0.0699529 -0.0727499 -0.0933661 0.140821 0.10893 0.175285 0.136219 0.10893 0.0700862 0.136219 0.0884311 0.175285 0.136219 0.209435 0.163549 0.136219 0.0884311 0.163549 0.107355 0.0700862 0.0311779 0.0884311 0.0403043 0.0311779 -0.00264214 0.0403043 -0.00193403 0.0884311 0.0403043 0.107355 0.0501523 0.0403043 -0.00193403 0.0501523 -0.000453379 0.209435 0.163549 0.242964 0.190949 0.163549 0.107355 0.190949 0.126763 0.242964 0.190949 0.275933 0.21835 0.190949 0.126763 0.21835 0.146816 0.107355 0.0501523 0.126763 0.0610623 0.0501523 -0.000453379 0.0610623 0.00198414 0.126763 0.0610623 0.146816 0.0729171 0.0610623 0.00198414 0.0729171 0.005502 -0.00264214 -0.0296633 -0.00193403 -0.0361611 -0.0296633 -0.0520234 -0.0361611 -0.0646806 -0.00193403 -0.0361611 -0.000453379 -0.0422442 -0.0361611 -0.0646806 -0.0422442 -0.0771864 -0.0520234 -0.0727499 -0.0646806 -0.0910789 -0.0727499 -0.0933661 -0.0910789 -0.116697 -0.0646806 -0.0910789 -0.0771864 -0.109393 -0.0910789 -0.116697 -0.109393 -0.139817 -0.000453379 -0.0422442 0.00198414 -0.0473838 -0.0422442 -0.0771864 -0.0473838 -0.0893398 0.00198414 -0.0473838 0.005502 -0.0518576 -0.0473838 -0.0893398 -0.0518576 -0.101038 -0.0771864 -0.109393 -0.0893398 -0.127413 -0.109393 -0.139817 -0.127413 -0.162856 -0.0893398 -0.127413 -0.101038 -0.145376 -0.127413 -0.162856 -0.145376 -0.185463 0 0.0683285 0 0.0759039 0.0683285 0.135422 0.0759039 0.150421 0 0.0759039 0 0.0831542 0.0759039 0.150421 0.0831542 0.164756 0.135422 0.198939 0.150421 0.220879 0.198939 0.25453 0.220879 0.282548 0.150421 0.220879 0.164756 0.241874 0.220879 0.282548 0.241874 0.309319 0 0.0831542 0 0.0900408 0.0831542 0.164756 0.0900408 0.178373 0 0.0900408 0 0.0965311 0.0900408 0.178373 0.0965311 0.191219 0.164756 0.241874 0.178373 0.261816 0.241874 0.309319 0.261816 0.334751 0.178373 0.261816 0.191219 0.280636 0.261816 0.334751 0.280636 0.358782 0.25453 0.296029 0.282548 0.328551 0.296029 0.316355 0.328551 0.351349 0.282548 0.328551 0.309319 0.3597 0.328551 0.351349 0.3597 0.384898 0.316355 0.310132 0.351349 0.344976 0.310132 0.275933 0.344976 0.308136 0.351349 0.344976 0.384898 0.378666 0.344976 0.308136 0.378666 0.339571 0.309319 0.3597 0.334751 0.389305 0.3597 0.384898 0.389305 0.416869 0.334751 0.389305 0.358782 0.417316 0.389305 0.416869 0.417316 0.447235 0.384898 0.378666 0.416869 0.410952 0.378666 0.339571 0.410952 0.370062 0.416869 0.410952 0.447235 0.441826 0.410952 0.370062 0.441826 0.399601 0 0.0965311 0 0.102616 0.0965311 0.191219 0.102616 0.203274 0 0.102616 0 0.10827 0.102616 0.203274 0.10827 0.214499 0.191219 0.280636 0.203274 0.298321 0.280636 0.358782 0.298321 0.381395 0.203274 0.298321 0.214499 0.314824 0.298321 0.381395 0.314824 0.402559 0 0.10827 0 0.113458 0.10827 0.214499 0.113458 0.22482 0 0.113458 0 0.118183 0.113458 0.22482 0.118183 0.234262 0.214499 0.314824 0.22482 0.330065 0.314824 0.402559 0.330065 0.422164 0.22482 0.330065 0.234262 0.344068 0.330065 0.422164 0.344068 0.440286 0.358782 0.417316 0.381395 0.443725 0.417316 0.447235 0.443725 0.475972 0.381395 0.443725 0.402559 0.468512 0.443725 0.475972 0.468512 0.503074 0.447235 0.441826 0.475972 0.471249 0.441826 0.399601 0.471249 0.428105 0.475972 0.471249 0.503074 0.499209 0.471249 0.428105 0.499209 0.455537 0.402559 0.468512 0.422164 0.491594 0.468512 0.503074 0.491594 0.52843 0.422164 0.491594 0.440286 0.51302 0.491594 0.52843 0.51302 0.552127 0.503074 0.499209 0.52843 0.525621 0.499209 0.455537 0.525621 0.481768 0.52843 0.525621 0.552127 0.550472 0.525621 0.481768 0.550472 0.506765 0.275933 0.21835 0.308136 0.245492 0.21835 0.146816 0.245492 0.167317 0.308136 0.245492 0.339571 0.272615 0.245492 0.167317 0.272615 0.188345 0.146816 0.0729171 0.167317 0.0855799 0.0729171 0.005502 0.0855799 0.0100181 0.167317 0.0855799 0.188345 0.0993389 0.0855799 0.0100181 0.0993389 0.0156014 0.339571 0.272615 0.370062 0.299406 0.272615 0.188345 0.299406 0.209763 0.370062 0.299406 0.399601 0.325873 0.299406 0.209763 0.325873 0.231532 0.188345 0.0993389 0.209763 0.113982 0.0993389 0.0156014 0.113982 0.022379 0.209763 0.113982 0.231532 0.129499 0.113982 0.022379 0.129499 0.0302611 0.005502 -0.0518576 0.0100181 -0.055576 -0.0518576 -0.101038 -0.055576 -0.112279 0.0100181 -0.055576 0.0156014 -0.0583312 -0.055576 -0.112279 -0.0583312 -0.123052 -0.101038 -0.145376 -0.112279 -0.163092 -0.145376 -0.185463 -0.163092 -0.207792 -0.112279 -0.163092 -0.123052 -0.180441 -0.163092 -0.207792 -0.180441 -0.229779 0.0156014 -0.0583312 0.022379 -0.0599884 -0.0583312 -0.123052 -0.0599884 -0.132814 0.022379 -0.0599884 0.0302611 -0.0605641 -0.0599884 -0.132814 -0.0605641 -0.141675 -0.123052 -0.180441 -0.132814 -0.196951 -0.180441 -0.229779 -0.196951 -0.250727 -0.132814 -0.196951 -0.141675 -0.212601 -0.196951 -0.250727 -0.212601 -0.270706 0.399601 0.325873 0.428105 0.351893 0.325873 0.231532 0.351893 0.253517 0.428105 0.351893 0.455537 0.377401 0.351893 0.253517 0.377401 0.275608 0.231532 0.129499 0.253517 0.145756 0.129499 0.0302611 0.145756 0.0392181 0.253517 0.145756 0.275608 0.162677 0.145756 0.0392181 0.162677 0.0491869 0.455537 0.377401 0.481768 0.402283 0.377401 0.275608 0.402283 0.297665 0.481768 0.402283 0.506765 0.426337 0.402283 0.297665 0.426337 0.319484 0.275608 0.162677 0.297665 0.180174 0.162677 0.0491869 0.180174 0.0601494 0.297665 0.180174 0.319484 0.197955 0.180174 0.0601494 0.197955 0.0719762 0.0302611 -0.0605641 0.0392181 -0.0600266 -0.0605641 -0.141675 -0.0600266 -0.149454 0.0392181 -0.0600266 0.0491869 -0.058279 -0.0600266 -0.149454 -0.058279 -0.156008 -0.141675 -0.212601 -0.149454 -0.227268 -0.212601 -0.270706 -0.227268 -0.289602 -0.149454 -0.227268 -0.156008 -0.240619 -0.227268 -0.289602 -0.240619 -0.30717 0.0491869 -0.058279 0.0601494 -0.0552381 -0.058279 -0.156008 -0.0552381 -0.161108 0.0601494 -0.0552381 0.0719762 -0.0509379 -0.0552381 -0.161108 -0.0509379 -0.164548 -0.156008 -0.240619 -0.161108 -0.252379 -0.240619 -0.30717 -0.252379 -0.322986 -0.161108 -0.252379 -0.164548 -0.262301 -0.252379 -0.322986 -0.262301 -0.336864 0 0 -0.0233058 -0.0279713 0 0 -0.0279713 -0.0308996 -0.0233058 -0.0279713 -0.0465089 -0.0558116 -0.0279713 -0.0308996 -0.0558116 -0.0614175 0 0 -0.0308996 -0.0307256 0 0 -0.0307256 -0.0275912 -0.0308996 -0.0307256 -0.0614175 -0.0612791 -0.0307256 -0.0275912 -0.0612791 -0.0549147 -0.0465089 -0.0558116 -0.0699529 -0.0837715 -0.0558116 -0.0614175 -0.0837715 -0.0919522 -0.0699529 -0.0837715 -0.0933661 -0.111242 -0.0837715 -0.0919522 -0.111242 -0.121901 -0.0614175 -0.0612791 -0.0919522 -0.0914594 -0.0612791 -0.0549147 -0.0914594 -0.0819286 -0.0919522 -0.0914594 -0.121901 -0.121005 -0.0914594 -0.0819286 -0.121005 -0.108691 0 0 -0.0275912 -0.022156 0 0 -0.022156 -0.0160886 -0.0275912 -0.022156 -0.0549147 -0.0444569 -0.022156 -0.0160886 -0.0444569 -0.0321075 0 0 -0.0160886 -0.00990184 0 0 -0.00990184 -0.004196 -0.0160886 -0.00990184 -0.0321075 -0.0200154 -0.00990184 -0.004196 -0.0200154 -0.00828129 -0.0549147 -0.0444569 -0.0819286 -0.0662365 -0.0444569 -0.0321075 -0.0662365 -0.0481934 -0.0819286 -0.0662365 -0.108691 -0.0881085 -0.0662365 -0.0481934 -0.0881085 -0.0645004 -0.0321075 -0.0200154 -0.0481934 -0.0301961 -0.0200154 -0.00828129 -0.0301961 -0.013106 -0.0481934 -0.0301961 -0.0645004 -0.0406606 -0.0301961 -0.013106 -0.0406606 -0.0179773 -0.0933661 -0.111242 -0.116697 -0.13866 -0.111242 -0.121901 -0.13866 -0.151152 -0.116697 -0.13866 -0.139817 -0.165357 -0.13866 -0.151152 -0.165357 -0.179429 -0.121901 -0.121005 -0.151152 -0.149809 -0.121005 -0.108691 -0.149809 -0.13428 -0.151152 -0.149809 -0.179429 -0.177372 -0.149809 -0.13428 -0.177372 -0.159151 -0.139817 -0.165357 -0.162856 -0.191483 -0.165357 -0.179429 -0.191483 -0.20689 -0.162856 -0.191483 -0.185463 -0.217039 -0.191483 -0.20689 -0.217039 -0.233117 -0.179429 -0.177372 -0.20689 -0.20373 -0.177372 -0.159151 -0.20373 -0.182931 -0.20689 -0.20373 -0.233117 -0.229066 -0.20373 -0.182931 -0.229066 -0.205671 -0.108691 -0.0881085 -0.13428 -0.109358 -0.0881085 -0.0645004 -0.109358 -0.0803648 -0.13428 -0.109358 -0.159151 -0.129923 -0.109358 -0.0803648 -0.129923 -0.0961601 -0.0645004 -0.0406606 -0.0803648 -0.0515186 -0.0406606 -0.0179773 -0.0515186 -0.0233587 -0.0803648 -0.0515186 -0.0961601 -0.0619392 -0.0515186 -0.0233587 -0.0619392 -0.0288975 -0.159151 -0.129923 -0.182931 -0.149794 -0.129923 -0.0961601 -0.149794 -0.111695 -0.182931 -0.149794 -0.205671 -0.169344 -0.149794 -0.111695 -0.169344 -0.127068 -0.0961601 -0.0619392 -0.111695 -0.0727264 -0.0619392 -0.0288975 -0.0727264 -0.0346852 -0.111695 -0.0727264 -0.127068 -0.0838111 -0.0727264 -0.0346852 -0.0838111 -0.0410146 0 0 -0.004196 0.00120853 0 0 0.00120853 0.00540563 -0.004196 0.00120853 -0.00828129 0.0021925 0.00120853 0.00540563 0.0021925 0.0106726 0 0 0.00540563 0.00778594 0 0 0.00778594 0.00814348 0.00540563 0.00778594 0.0106726 0.0152224 0.00778594 0.00814348 0.0152224 0.0159986 -0.00828129 0.0021925 -0.013106 0.00282062 0.0021925 0.0106726 0.00282062 0.0154162 -0.013106 0.00282062 -0.0179773 0.00301803 0.00282062 0.0154162 0.00301803 0.0198417 0.0106726 0.0152224 0.0154162 0.0227231 0.0152224 0.0159986 0.0227231 0.0238622 0.0154162 0.0227231 0.0198417 0.0295362 0.0227231 0.0238622 0.0295362 0.0317215 0 0 0.00814348 0.007442 0 0 0.007442 0.00739258 0.00814348 0.007442 0.0159986 0.0148364 0.007442 0.00739258 0.0148364 0.0144857 0 0 0.00739258 0.00804717 0 0 0.00804717 0.00910412 0.00739258 0.00804717 0.0144857 0.0161903 0.00804717 0.00910412 0.0161903 0.0175629 0.0159986 0.0148364 0.0238622 0.0222057 0.0148364 0.0144857 0.0222057 0.0214314 0.0238622 0.0222057 0.0317215 0.0295232 0.0222057 0.0214314 0.0295232 0.0286212 0.0144857 0.0161903 0.0214314 0.0234635 0.0161903 0.0175629 0.0234635 0.0256882 0.0214314 0.0234635 0.0286212 0.0305568 0.0234635 0.0256882 0.0305568 0.0333957 -0.0179773 0.00301803 -0.0233587 0.00256594 0.00301803 0.0198417 0.00256594 0.0238743 -0.0233587 0.00256594 -0.0288975 0.00208052 0.00256594 0.0238743 0.00208052 0.0271795 0.0198417 0.0295362 0.0238743 0.0363002 0.0295362 0.0317215 0.0363002 0.0394126 0.0238743 0.0363002 0.0271795 0.0427206 0.0363002 0.0394126 0.0427206 0.0470214 -0.0288975 0.00208052 -0.0346852 0.00102153 0.00208052 0.0271795 0.00102153 0.0303756 -0.0346852 0.00102153 -0.0410146 -0.000975988 0.00102153 0.0303756 -0.000975988 0.032242 0.0271795 0.0427206 0.0303756 0.0484734 0.0427206 0.0470214 0.0484734 0.0542636 0.0303756 0.0484734 0.032242 0.0532936 0.0484734 0.0542636 0.0532936 0.060778 0.0317215 0.0295232 0.0394126 0.0371159 0.0295232 0.0286212 0.0371159 0.0355202 0.0394126 0.0371159 0.0470214 0.0448354 0.0371159 0.0355202 0.0448354 0.0424256 0.0286212 0.0305568 0.0355202 0.0376702 0.0305568 0.0333957 0.0376702 0.0402839 0.0355202 0.0376702 0.0424256 0.0437365 0.0376702 0.0402839 0.0437365 0.0464658 0.0470214 0.0448354 0.0542636 0.0519211 0.0448354 0.0424256 0.0519211 0.0490997 0.0542636 0.0519211 0.060778 0.0590202 0.0519211 0.0490997 0.0590202 0.055307 0.0424256 0.0437365 0.0490997 0.0494565 0.0437365 0.0464658 0.0494565 0.0517065 0.0490997 0.0494565 0.055307 0.0546699 0.0494565 0.0517065 0.0546699 0.056239 -0.185463 -0.217039 -0.207792 -0.241918 -0.217039 -0.233117 -0.241918 -0.25845 -0.207792 -0.241918 -0.229779 -0.266025 -0.241918 -0.25845 -0.266025 -0.282719 -0.233117 -0.229066 -0.25845 -0.253212 -0.229066 -0.205671 -0.253212 -0.227655 -0.25845 -0.253212 -0.282719 -0.27617 -0.253212 -0.227655 -0.27617 -0.248656 -0.229779 -0.266025 -0.250727 -0.288927 -0.266025 -0.282719 -0.288927 -0.305498 -0.250727 -0.288927 -0.270706 -0.310513 -0.288927 -0.305498 -0.310513 -0.326735 -0.282719 -0.27617 -0.305498 -0.29774 -0.27617 -0.248656 -0.29774 -0.268511 -0.305498 -0.29774 -0.326735 -0.317712 -0.29774 -0.268511 -0.317712 -0.287078 -0.205671 -0.169344 -0.227655 -0.188342 -0.169344 -0.127068 -0.188342 -0.142637 -0.227655 -0.188342 -0.248656 -0.206827 -0.188342 -0.142637 -0.206827 -0.157942 -0.127068 -0.0838111 -0.142637 -0.0951213 -0.0838111 -0.0410146 -0.0951213 -0.0479623 -0.142637 -0.0951213 -0.157942 -0.10654 -0.0951213 -0.0479623 -0.10654 -0.0550111 -0.248656 -0.206827 -0.268511 -0.224573 -0.206827 -0.157942 -0.224573 -0.172833 -0.268511 -0.224573 -0.287078 -0.241504 -0.224573 -0.172833 -0.241504 -0.187346 -0.157942 -0.10654 -0.172833 -0.117689 -0.10654 -0.0550111 -0.117689 -0.0621074 -0.172833 -0.117689 -0.187346 -0.128817 -0.117689 -0.0621074 -0.128817 -0.069252 -0.270706 -0.310513 -0.289602 -0.33098 -0.310513 -0.326735 -0.33098 -0.346778 -0.289602 -0.33098 -0.30717 -0.349962 -0.33098 -0.346778 -0.349962 -0.365447 -0.326735 -0.317712 -0.346778 -0.336712 -0.317712 -0.287078 -0.336712 -0.304902 -0.346778 -0.336712 -0.365447 -0.354412 -0.336712 -0.304902 -0.354412 -0.321846 -0.30717 -0.349962 -0.322986 -0.367135 -0.349962 -0.365447 -0.367135 -0.382288 -0.322986 -0.367135 -0.336864 -0.38252 -0.367135 -0.382288 -0.38252 -0.397611 -0.365447 -0.354412 -0.382288 -0.370594 -0.354412 -0.321846 -0.370594 -0.337516 -0.382288 -0.370594 -0.397611 -0.385545 -0.370594 -0.337516 -0.385545 -0.352215 -0.287078 -0.241504 -0.304902 -0.257966 -0.241504 -0.187346 -0.257966 -0.201461 -0.304902 -0.257966 -0.321846 -0.273801 -0.257966 -0.201461 -0.273801 -0.215347 -0.187346 -0.128817 -0.201461 -0.139542 -0.128817 -0.069252 -0.139542 -0.0762574 -0.201461 -0.139542 -0.215347 -0.150172 -0.139542 -0.0762574 -0.150172 -0.0832908 -0.321846 -0.273801 -0.337516 -0.288814 -0.273801 -0.215347 -0.288814 -0.228489 -0.337516 -0.288814 -0.352215 -0.302873 -0.288814 -0.228489 -0.302873 -0.240878 -0.215347 -0.150172 -0.228489 -0.160352 -0.150172 -0.0832908 -0.160352 -0.09007 -0.228489 -0.160352 -0.240878 -0.169884 -0.160352 -0.09007 -0.169884 -0.0967467 -0.0410146 -0.000975988 -0.0479623 -0.00349605 -0.000975988 0.032242 -0.00349605 0.0332295 -0.0479623 -0.00349605 -0.0550111 -0.00651744 -0.00349605 0.0332295 -0.00651744 0.0336048 0.032242 0.0532936 0.0332295 0.0570293 0.0532936 0.060778 0.0570293 0.0662452 0.0332295 0.0570293 0.0336048 0.0598565 0.0570293 0.0662452 0.0598565 0.0708496 -0.0550111 -0.00651744 -0.0621074 -0.00988868 -0.00651744 0.0336048 -0.00988868 0.0330319 -0.0621074 -0.00988868 -0.069252 -0.0135965 -0.00988868 0.0330319 -0.0135965 0.0319016 0.0336048 0.0598565 0.0330319 0.0615483 0.0598565 0.0708496 0.0615483 0.0743797 0.0330319 0.0615483 0.0319016 0.062011 0.0615483 0.0743797 0.062011 0.0764112 0.060778 0.0590202 0.0662452 0.0652449 0.0590202 0.055307 0.0652449 0.0613627 0.0662452 0.0652449 0.0708496 0.0708153 0.0652449 0.0613627 0.0708153 0.0668183 0.055307 0.0546699 0.0613627 0.0596816 0.0546699 0.056239 0.0596816 0.060691 0.0613627 0.0596816 0.0668183 0.0643545 0.0596816 0.060691 0.0643545 0.064491 0.0708496 0.0708153 0.0743797 0.0756254 0.0708153 0.0668183 0.0756254 0.0718508 0.0743797 0.0756254 0.0764112 0.0790998 0.0756254 0.0718508 0.0790998 0.076374 0.0668183 0.0643545 0.0718508 0.0684955 0.0643545 0.064491 0.0684955 0.0680806 0.0718508 0.0684955 0.076374 0.0731008 0.0684955 0.0680806 0.0731008 0.0720472 -0.069252 -0.0135965 -0.0762574 -0.0175431 -0.0135965 0.0319016 -0.0175431 0.0298053 -0.0762574 -0.0175431 -0.0832908 -0.0216565 -0.0175431 0.0298053 -0.0216565 0.0273542 0.0319016 0.062011 0.0298053 0.0614402 0.062011 0.0764112 0.0614402 0.0773977 0.0298053 0.0614402 0.0273542 0.0598458 0.0614402 0.0773977 0.0598458 0.0771203 -0.0832908 -0.0216565 -0.09007 -0.0261489 -0.0216565 0.0273542 -0.0261489 0.0238864 -0.09007 -0.0261489 -0.0967467 -0.0308919 -0.0261489 0.0238864 -0.0308919 0.019591 0.0273542 0.0598458 0.0238864 0.0568578 0.0598458 0.0771203 0.0568578 0.0752574 0.0238864 0.0568578 0.019591 0.0526815 0.0568578 0.0752574 0.0526815 0.0719228 0.0764112 0.0790998 0.0773977 0.0820203 0.0790998 0.076374 0.0820203 0.0804262 0.0773977 0.0820203 0.0771203 0.0835526 0.0820203 0.0804262 0.0835526 0.0840625 0.076374 0.0731008 0.0804262 0.0774601 0.0731008 0.0720472 0.0774601 0.0763712 0.0804262 0.0774601 0.0840625 0.0820122 0.0774601 0.0763712 0.0820122 0.0809965 0.0771203 0.0835526 0.0752574 0.0838688 0.0835526 0.0840625 0.0838688 0.0865365 0.0752574 0.0838688 0.0719228 0.0826574 0.0838688 0.0865365 0.0826574 0.088027 0.0840625 0.0820122 0.0865365 0.0861705 0.0820122 0.0809965 0.0861705 0.0857206 0.0865365 0.0861705 0.088027 0.0896928 0.0861705 0.0857206 0.0896928 0.0903868 0 0.118183 0 0.122418 0.118183 0.234262 0.122418 0.242772 0 0.122418 0 0.126154 0.122418 0.242772 0.126154 0.250332 0.234262 0.344068 0.242772 0.356788 0.344068 0.440286 0.356788 0.456875 0.242772 0.356788 0.250332 0.368198 0.356788 0.456875 0.368198 0.47189 0 0.126154 0 0.129366 0.126154 0.250332 0.129366 0.256905 0 0.129366 0 0.132078 0.129366 0.256905 0.132078 0.262537 0.250332 0.368198 0.25