<?xml version="1.0" ?> 
<!-- 
# vtk DataFile Version 3.0
#This file was generated by the deal.II library on 23:53:54 at 2021/5/3
-->
<VTKFile type="UnstructuredGrid" version="0.1" byte_order="LittleEndian">
<UnstructuredGrid>
<FieldData>
<DataArray type="Float32" Name="CYCLE" NumberOfTuples="1" format="ascii">169</DataArray>
<DataArray type="Float32" Name="TIME" NumberOfTuples="1" format="ascii">0.338</DataArray>
</FieldData>
<Piece NumberOfPoints="5424" NumberOfCells="1356" >
  <Points>
    <DataArray type="Float32" NumberOfComponents="3" format="ascii">
-1 -1 0
-0.75 -1 0
-1 -0.75 0
-0.75 -0.75 0
-0.75 -1 0
-0.5 -1 0
-0.75 -0.75 0
-0.5 -0.75 0
-1 -0.75 0
-0.75 -0.75 0
-1 -0.5 0
-0.75 -0.5 0
-0.75 -0.75 0
-0.5 -0.75 0
-0.75 -0.5 0
-0.5 -0.5 0
-0.5 -1 0
-0.25 -1 0
-0.5 -0.75 0
-0.25 -0.75 0
-0.25 -1 0
0 -1 0
-0.25 -0.75 0
0 -0.75 0
-0.5 -0.75 0
-0.25 -0.75 0
-0.5 -0.5 0
-0.25 -0.5 0
-0.25 -0.75 0
0 -0.75 0
-0.25 -0.5 0
0 -0.5 0
-1 -0.5 0
-0.75 -0.5 0
-1 -0.25 0
-0.75 -0.25 0
-0.75 -0.5 0
-0.5 -0.5 0
-0.75 -0.25 0
-0.5 -0.25 0
-1 -0.25 0
-0.75 -0.25 0
-1 0 0
-0.75 0 0
-0.5 -0.5 0
-0.25 -0.5 0
-0.5 -0.25 0
-0.25 -0.25 0
-0.25 -0.5 0
0 -0.5 0
-0.25 -0.25 0
0 -0.25 0
0 -1 0
0.25 -1 0
0 -0.75 0
0.25 -0.75 0
0.75 -1 0
1 -1 0
0.75 -0.75 0
1 -0.75 0
-0.75 -0.25 0
-0.625 -0.25 0
-0.75 -0.125 0
-0.625 -0.125 0
-0.625 -0.25 0
-0.5 -0.25 0
-0.625 -0.125 0
-0.5 -0.125 0
-0.75 -0.125 0
-0.625 -0.125 0
-0.75 0 0
-0.625 0 0
-0.625 -0.125 0
-0.5 -0.125 0
-0.625 0 0
-0.5 0 0
-0.5 -0.25 0
-0.375 -0.25 0
-0.5 -0.125 0
-0.375 -0.125 0
-0.375 -0.25 0
-0.25 -0.25 0
-0.375 -0.125 0
-0.25 -0.125 0
-0.5 -0.125 0
-0.375 -0.125 0
-0.5 0 0
-0.375 0 0
-0.375 -0.125 0
-0.25 -0.125 0
-0.375 0 0
-0.25 0 0
-1 0 0
-0.875 0 0
-1 0.125 0
-0.875 0.125 0
-0.875 0 0
-0.75 0 0
-0.875 0.125 0
-0.75 0.125 0
-1 0.125 0
-0.875 0.125 0
-1 0.25 0
-0.875 0.25 0
-0.875 0.125 0
-0.75 0.125 0
-0.875 0.25 0
-0.75 0.25 0
0 -0.75 0
0.125 -0.75 0
0 -0.625 0
0.125 -0.625 0
0.125 -0.75 0
0.25 -0.75 0
0.125 -0.625 0
0.25 -0.625 0
0 -0.625 0
0.125 -0.625 0
0 -0.5 0
0.125 -0.5 0
0.125 -0.625 0
0.25 -0.625 0
0.125 -0.5 0
0.25 -0.5 0
0 -0.5 0
0.125 -0.5 0
0 -0.375 0
0.125 -0.375 0
0 -0.375 0
0.125 -0.375 0
0 -0.25 0
0.125 -0.25 0
0 -0.25 0
0.125 -0.25 0
0 -0.125 0
0.125 -0.125 0
0.125 -0.25 0
0.25 -0.25 0
0.125 -0.125 0
0.25 -0.125 0
0 -0.125 0
0.125 -0.125 0
0 0 0
0.125 0 0
0.125 -0.125 0
0.25 -0.125 0
0.125 0 0
0.25 0 0
0.25 -1 0
0.375 -1 0
0.25 -0.875 0
0.375 -0.875 0
0.375 -1 0
0.5 -1 0
0.375 -0.875 0
0.5 -0.875 0
0.25 -0.875 0
0.375 -0.875 0
0.25 -0.75 0
0.375 -0.75 0
0.375 -0.875 0
0.5 -0.875 0
0.375 -0.75 0
0.5 -0.75 0
0.25 -0.75 0
0.375 -0.75 0
0.25 -0.625 0
0.375 -0.625 0
0.5 -1 0
0.625 -1 0
0.5 -0.875 0
0.625 -0.875 0
0.625 -1 0
0.75 -1 0
0.625 -0.875 0
0.75 -0.875 0
0.5 -0.875 0
0.625 -0.875 0
0.5 -0.75 0
0.625 -0.75 0
0.625 -0.875 0
0.75 -0.875 0
0.625 -0.75 0
0.75 -0.75 0
0.75 -0.25 0
0.875 -0.25 0
0.75 -0.125 0
0.875 -0.125 0
0.875 -0.25 0
1 -0.25 0
0.875 -0.125 0
1 -0.125 0
0.75 -0.125 0
0.875 -0.125 0
0.75 0 0
0.875 0 0
0.875 -0.125 0
1 -0.125 0
0.875 0 0
1 0 0
0.5 -0.625 0
0.625 -0.625 0
0.5 -0.5 0
0.625 -0.5 0
0.625 -0.625 0
0.75 -0.625 0
0.625 -0.5 0
0.75 -0.5 0
0.75 -0.75 0
0.875 -0.75 0
0.75 -0.625 0
0.875 -0.625 0
0.875 -0.75 0
1 -0.75 0
0.875 -0.625 0
1 -0.625 0
0.75 -0.625 0
0.875 -0.625 0
0.75 -0.5 0
0.875 -0.5 0
0.875 -0.625 0
1 -0.625 0
0.875 -0.5 0
1 -0.5 0
0.375 -0.5 0
0.5 -0.5 0
0.375 -0.375 0
0.5 -0.375 0
0.25 -0.375 0
0.375 -0.375 0
0.25 -0.25 0
0.375 -0.25 0
0.375 -0.375 0
0.5 -0.375 0
0.375 -0.25 0
0.5 -0.25 0
-0.25 -0.25 0
-0.125 -0.25 0
-0.25 -0.125 0
-0.125 -0.125 0
-0.125 -0.25 0
0 -0.25 0
-0.125 -0.125 0
0 -0.125 0
-0.25 -0.125 0
-0.125 -0.125 0
-0.25 0 0
-0.125 0 0
-0.125 -0.125 0
0 -0.125 0
-0.125 0 0
0 0 0
-0.75 0 0
-0.625 0 0
-0.75 0.125 0
-0.625 0.125 0
-1 0.25 0
-0.875 0.25 0
-1 0.375 0
-0.875 0.375 0
-0.125 0 0
0 0 0
-0.125 0.125 0
0 0.125 0
0.25 -0.25 0
0.375 -0.25 0
0.25 -0.125 0
0.375 -0.125 0
0.375 -0.25 0
0.5 -0.25 0
0.375 -0.125 0
0.5 -0.125 0
0.25 -0.125 0
0.375 -0.125 0
0.25 0 0
0.375 0 0
0.375 -0.125 0
0.5 -0.125 0
0.375 0 0
0.5 0 0
0.5 -0.5 0
0.625 -0.5 0
0.5 -0.375 0
0.625 -0.375 0
0.625 -0.5 0
0.75 -0.5 0
0.625 -0.375 0
0.75 -0.375 0
0.5 -0.375 0
0.625 -0.375 0
0.5 -0.25 0
0.625 -0.25 0
0.625 -0.375 0
0.75 -0.375 0
0.625 -0.25 0
0.75 -0.25 0
0.75 -0.5 0
0.875 -0.5 0
0.75 -0.375 0
0.875 -0.375 0
0.875 -0.5 0
1 -0.5 0
0.875 -0.375 0
1 -0.375 0
0.75 -0.375 0
0.875 -0.375 0
0.75 -0.25 0
0.875 -0.25 0
0.875 -0.375 0
1 -0.375 0
0.875 -0.25 0
1 -0.25 0
0.5 -0.25 0
0.625 -0.25 0
0.5 -0.125 0
0.625 -0.125 0
0.625 -0.25 0
0.75 -0.25 0
0.625 -0.125 0
0.75 -0.125 0
0.5 -0.125 0
0.625 -0.125 0
0.5 0 0
0.625 0 0
0.625 -0.125 0
0.75 -0.125 0
0.625 0 0
0.75 0 0
-1 0.875 0
-0.875 0.875 0
-1 1 0
-0.875 1 0
-0.625 0.25 0
-0.5625 0.25 0
-0.625 0.3125 0
-0.5625 0.3125 0
-0.75 0.375 0
-0.6875 0.375 0
-0.75 0.4375 0
-0.6875 0.4375 0
-0.875 0.8125 0
-0.8125 0.8125 0
-0.875 0.875 0
-0.8125 0.875 0
0.125 -0.5 0
0.1875 -0.5 0
0.125 -0.4375 0
0.1875 -0.4375 0
0.1875 -0.5 0
0.25 -0.5 0
0.1875 -0.4375 0
0.25 -0.4375 0
0.125 -0.4375 0
0.1875 -0.4375 0
0.125 -0.375 0
0.1875 -0.375 0
0.1875 -0.4375 0
0.25 -0.4375 0
0.1875 -0.375 0
0.25 -0.375 0
0.125 -0.375 0
0.1875 -0.375 0
0.125 -0.3125 0
0.1875 -0.3125 0
0.1875 -0.375 0
0.25 -0.375 0
0.1875 -0.3125 0
0.25 -0.3125 0
0.125 -0.3125 0
0.1875 -0.3125 0
0.125 -0.25 0
0.1875 -0.25 0
0.1875 -0.3125 0
0.25 -0.3125 0
0.1875 -0.25 0
0.25 -0.25 0
0.375 -0.75 0
0.4375 -0.75 0
0.375 -0.6875 0
0.4375 -0.6875 0
0.4375 -0.75 0
0.5 -0.75 0
0.4375 -0.6875 0
0.5 -0.6875 0
0.375 -0.6875 0
0.4375 -0.6875 0
0.375 -0.625 0
0.4375 -0.625 0
0.4375 -0.6875 0
0.5 -0.6875 0
0.4375 -0.625 0
0.5 -0.625 0
0.25 -0.625 0
0.3125 -0.625 0
0.25 -0.5625 0
0.3125 -0.5625 0
0.3125 -0.625 0
0.375 -0.625 0
0.3125 -0.5625 0
0.375 -0.5625 0
0.25 -0.5625 0
0.3125 -0.5625 0
0.25 -0.5 0
0.3125 -0.5 0
0.3125 -0.5625 0
0.375 -0.5625 0
0.3125 -0.5 0
0.375 -0.5 0
0.375 -0.625 0
0.4375 -0.625 0
0.375 -0.5625 0
0.4375 -0.5625 0
0.4375 -0.625 0
0.5 -0.625 0
0.4375 -0.5625 0
0.5 -0.5625 0
0.375 -0.5625 0
0.4375 -0.5625 0
0.375 -0.5 0
0.4375 -0.5 0
0.4375 -0.5625 0
0.5 -0.5625 0
0.4375 -0.5 0
0.5 -0.5 0
0.5 -0.75 0
0.5625 -0.75 0
0.5 -0.6875 0
0.5625 -0.6875 0
0.5625 -0.75 0
0.625 -0.75 0
0.5625 -0.6875 0
0.625 -0.6875 0
0.5 -0.6875 0
0.5625 -0.6875 0
0.5 -0.625 0
0.5625 -0.625 0
0.5625 -0.6875 0
0.625 -0.6875 0
0.5625 -0.625 0
0.625 -0.625 0
0.625 -0.75 0
0.6875 -0.75 0
0.625 -0.6875 0
0.6875 -0.6875 0
0.6875 -0.75 0
0.75 -0.75 0
0.6875 -0.6875 0
0.75 -0.6875 0
0.625 -0.6875 0
0.6875 -0.6875 0
0.625 -0.625 0
0.6875 -0.625 0
0.6875 -0.6875 0
0.75 -0.6875 0
0.6875 -0.625 0
0.75 -0.625 0
0.25 -0.5 0
0.3125 -0.5 0
0.25 -0.4375 0
0.3125 -0.4375 0
0.3125 -0.5 0
0.375 -0.5 0
0.3125 -0.4375 0
0.375 -0.4375 0
0.25 -0.4375 0
0.3125 -0.4375 0
0.25 -0.375 0
0.3125 -0.375 0
0.3125 -0.4375 0
0.375 -0.4375 0
0.3125 -0.375 0
0.375 -0.375 0
-0.625 0 0
-0.5625 0 0
-0.625 0.0625 0
-0.5625 0.0625 0
-0.5625 0 0
-0.5 0 0
-0.5625 0.0625 0
-0.5 0.0625 0
-0.625 0.0625 0
-0.5625 0.0625 0
-0.625 0.125 0
-0.5625 0.125 0
-0.5625 0.0625 0
-0.5 0.0625 0
-0.5625 0.125 0
-0.5 0.125 0
-0.75 0.125 0
-0.6875 0.125 0
-0.75 0.1875 0
-0.6875 0.1875 0
-0.6875 0.125 0
-0.625 0.125 0
-0.6875 0.1875 0
-0.625 0.1875 0
-0.75 0.1875 0
-0.6875 0.1875 0
-0.75 0.25 0
-0.6875 0.25 0
-0.6875 0.1875 0
-0.625 0.1875 0
-0.6875 0.25 0
-0.625 0.25 0
-0.625 0.125 0
-0.5625 0.125 0
-0.625 0.1875 0
-0.5625 0.1875 0
-0.5625 0.125 0
-0.5 0.125 0
-0.5625 0.1875 0
-0.5 0.1875 0
-0.625 0.1875 0
-0.5625 0.1875 0
-0.625 0.25 0
-0.5625 0.25 0
-0.5625 0.1875 0
-0.5 0.1875 0
-0.5625 0.25 0
-0.5 0.25 0
-0.875 0.25 0
-0.8125 0.25 0
-0.875 0.3125 0
-0.8125 0.3125 0
-0.8125 0.25 0
-0.75 0.25 0
-0.8125 0.3125 0
-0.75 0.3125 0
-0.875 0.3125 0
-0.8125 0.3125 0
-0.875 0.375 0
-0.8125 0.375 0
-0.8125 0.3125 0
-0.75 0.3125 0
-0.8125 0.375 0
-0.75 0.375 0
-1 0.375 0
-0.9375 0.375 0
-1 0.4375 0
-0.9375 0.4375 0
-0.9375 0.375 0
-0.875 0.375 0
-0.9375 0.4375 0
-0.875 0.4375 0
-1 0.4375 0
-0.9375 0.4375 0
-1 0.5 0
-0.9375 0.5 0
-0.9375 0.4375 0
-0.875 0.4375 0
-0.9375 0.5 0
-0.875 0.5 0
-0.875 0.375 0
-0.8125 0.375 0
-0.875 0.4375 0
-0.8125 0.4375 0
-0.8125 0.375 0
-0.75 0.375 0
-0.8125 0.4375 0
-0.75 0.4375 0
-0.875 0.4375 0
-0.8125 0.4375 0
-0.875 0.5 0
-0.8125 0.5 0
-0.8125 0.4375 0
-0.75 0.4375 0
-0.8125 0.5 0
-0.75 0.5 0
-0.75 0.25 0
-0.6875 0.25 0
-0.75 0.3125 0
-0.6875 0.3125 0
-0.6875 0.25 0
-0.625 0.25 0
-0.6875 0.3125 0
-0.625 0.3125 0
-0.75 0.3125 0
-0.6875 0.3125 0
-0.75 0.375 0
-0.6875 0.375 0
-0.6875 0.3125 0
-0.625 0.3125 0
-0.6875 0.375 0
-0.625 0.375 0
-0.5 0 0
-0.4375 0 0
-0.5 0.0625 0
-0.4375 0.0625 0
-0.4375 0 0
-0.375 0 0
-0.4375 0.0625 0
-0.375 0.0625 0
-0.5 0.0625 0
-0.4375 0.0625 0
-0.5 0.125 0
-0.4375 0.125 0
-0.4375 0.0625 0
-0.375 0.0625 0
-0.4375 0.125 0
-0.375 0.125 0
-0.375 0 0
-0.3125 0 0
-0.375 0.0625 0
-0.3125 0.0625 0
-0.3125 0 0
-0.25 0 0
-0.3125 0.0625 0
-0.25 0.0625 0
-0.375 0.0625 0
-0.3125 0.0625 0
-0.375 0.125 0
-0.3125 0.125 0
-0.3125 0.0625 0
-0.25 0.0625 0
-0.3125 0.125 0
-0.25 0.125 0
-0.5 0.125 0
-0.4375 0.125 0
-0.5 0.1875 0
-0.4375 0.1875 0
-0.4375 0.125 0
-0.375 0.125 0
-0.4375 0.1875 0
-0.375 0.1875 0
-0.5 0.1875 0
-0.4375 0.1875 0
-0.5 0.25 0
-0.4375 0.25 0
-0.4375 0.1875 0
-0.375 0.1875 0
-0.4375 0.25 0
-0.375 0.25 0
-0.25 0 0
-0.1875 0 0
-0.25 0.0625 0
-0.1875 0.0625 0
-0.1875 0 0
-0.125 0 0
-0.1875 0.0625 0
-0.125 0.0625 0
-0.25 0.0625 0
-0.1875 0.0625 0
-0.25 0.125 0
-0.1875 0.125 0
-0.1875 0.0625 0
-0.125 0.0625 0
-0.1875 0.125 0
-0.125 0.125 0
-0.125 0.125 0
-0.0625 0.125 0
-0.125 0.1875 0
-0.0625 0.1875 0
-0.0625 0.125 0
0 0.125 0
-0.0625 0.1875 0
0 0.1875 0
-0.125 0.1875 0
-0.0625 0.1875 0
-0.125 0.25 0
-0.0625 0.25 0
-0.0625 0.1875 0
0 0.1875 0
-0.0625 0.25 0
0 0.25 0
-1 0.5 0
-0.9375 0.5 0
-1 0.5625 0
-0.9375 0.5625 0
-0.9375 0.5 0
-0.875 0.5 0
-0.9375 0.5625 0
-0.875 0.5625 0
-1 0.5625 0
-0.9375 0.5625 0
-1 0.625 0
-0.9375 0.625 0
-0.9375 0.5625 0
-0.875 0.5625 0
[...]
  <PointData Scalars="scalars">
    <DataArray type="Float32" Name="U" format="ascii">
0 0 0 8.76991e-05 0 0 8.76991e-05 0.000204334 0 8.76991e-05 0 0.000166491 8.76991e-05 0.000204334 0.000166491 0.000356575 0 0 0.000204334 0.000402326 0 0 0.000402326 0.000728922 0.000204334 0.000402326 0.000356575 0.000642946 0.000402326 0.000728922 0.000642946 0.0011126 0 0.000166491 0 0.00022691 0.000166491 0.000356575 0.00022691 0.000438286 0 0.00022691 0 0.000321752 0.000356575 0.000642946 0.000438286 0.000630808 0.000642946 0.0011126 0.000630808 0.000885068 0 0 0.000728922 0.00109483 0 0 0.000857966 0 0.00022691 0.000332598 0.000274331 0.000380508 0.000332598 0.000438286 0.000380508 0.000478727 0.000274331 0.000380508 0.000321752 0.000479491 0.000380508 0.000478727 0.000479491 0.000616876 0.000438286 0.000534547 0.000478727 0.000550845 0.000534547 0.000630808 0.000550845 0.000584534 0.000478727 0.000550845 0.000616876 0.000686101 0.000550845 0.000584534 0.000686101 0.000655635 0 0.000160876 0 0.000220548 0.000160876 0.000321752 0.000220548 0.00046378 0 0.000220548 0 0.000322969 0.000220548 0.00046378 0.000322969 0.000757619 0.000728922 0.000911879 0.00092076 0.00121715 0.000911879 0.00109483 0.00121715 0.00145515 0.00092076 0.00121715 0.0011126 0.00135097 0.00121715 0.00145515 0.00135097 0.00161034 0.0011126 0.00135097 0.000998832 0.0013003 0.000998832 0.0013003 0.000885068 0.0010304 0.000885068 0.0010304 0.000552918 0.000579659 0.0010304 0.00120445 0.000579659 0.000664053 0.000552918 0.000579659 0 0 0.000579659 0.000664053 0 0 0 0 0.000547417 0.00064176 0 0 0.00064176 0.000653771 0.000547417 0.00064176 0.00109483 0.00120685 0.00064176 0.000653771 0.00120685 0.00122437 0.00109483 0.00120685 0.00145515 0.00160823 0 0 0.000653771 0.000589681 0 0 0.000589681 0.000428983 0.000653771 0.000589681 0.00122437 0.00110623 0.000589681 0.000428983 0.00110623 0.000857966 0.000926032 0.000502352 0.000507736 0.000275404 0.000502352 0 0.000275404 0 0.000507736 0.000275404 0 0 0.000275404 0 0 0 0.00163417 0.00148059 0.00181778 0.00164244 0.00148059 0.00112805 0.00164244 0.00125373 0.000857966 0.000428983 0.00112805 0.000609845 0.000428983 0 0.000609845 0 0.00112805 0.000609845 0.00125373 0.000680245 0.000609845 0 0.000680245 0 0.00178679 0.00181778 0.00169763 0.00171876 0.00153078 0.00169763 0.00120445 0.00132653 0.00169763 0.00171876 0.00132653 0.00134322 0.000630808 0.000757938 0.000584534 0.000562841 0.000757938 0.000885068 0.000562841 0.000552918 0.000584534 0.000562841 0.000655635 0.000463814 0.000562841 0.000552918 0.000463814 0 0.000321752 0.000479491 0.00046378 0.00074697 0 0.000322969 0 0.000490922 0.000463814 0 0.000655146 0 0.00120445 0.00132653 0.000664053 0.000728954 0.00132653 0.00134322 0.000728954 0.0007369 0.000664053 0.000728954 0 0 0.000728954 0.0007369 0 0 0.00181778 0.00164244 0.00171876 0.00155481 0.00164244 0.00125373 0.00155481 0.00118655 0.00171876 0.00155481 0.00134322 0.00121372 0.00155481 0.00118655 0.00121372 0.000926032 0.00125373 0.000680245 0.00118655 0.000643863 0.000680245 0 0.000643863 0 0.00118655 0.000643863 0.000926032 0.000502352 0.000643863 0 0.000502352 0 0.00134322 0.00121372 0.0007369 0.000665666 0.00121372 0.000926032 0.000665666 0.000507736 0.0007369 0.000665666 0 0 0.000665666 0.000507736 0 0 0 0.000457283 0 0 0.00138986 0.00175543 0.00193025 0.00251001 0.00128096 0.00187995 0.00160573 0.00241886 0.000640016 0.00115839 0.000457283 0.00084342 0.00135097 0.00148065 0.00132563 0.00147493 0.00148065 0.00161034 0.00147493 0.00159651 0.00132563 0.00147493 0.0013003 0.00140827 0.00147493 0.00159651 0.00140827 0.00153078 0.0013003 0.00140827 0.00116535 0.00128801 0.00140827 0.00153078 0.00128801 0.00136762 0.00116535 0.00128801 0.0010304 0.00111743 0.00128801 0.00136762 0.00111743 0.00120445 0.00120685 0.00121561 0.00140754 0.00145153 0.00121561 0.00122437 0.00145153 0.00144484 0.00140754 0.00145153 0.00160823 0.00163157 0.00145153 0.00144484 0.00163157 0.00163417 0.00145515 0.00153169 0.00153275 0.00165004 0.00153169 0.00160823 0.00165004 0.00172178 0.00153275 0.00165004 0.00161034 0.00170359 0.00165004 0.00172178 0.00170359 0.00178679 0.00160823 0.00163157 0.00172178 0.00175431 0.00163157 0.00163417 0.00175431 0.00172598 0.00172178 0.00175431 0.00178679 0.00180228 0.00175431 0.00172598 0.00180228 0.00181778 0.00122437 0.0011653 0.00144484 0.00139669 0.0011653 0.00110623 0.00139669 0.00130576 0.00144484 0.00139669 0.00163417 0.00155738 0.00139669 0.00130576 0.00155738 0.00148059 0.00110623 0.000982098 0.00130576 0.00117407 0.000982098 0.000857966 0.00117407 0.000993006 0.00130576 0.00117407 0.00148059 0.00130432 0.00117407 0.000993006 0.00130432 0.00112805 0.00161034 0.00170359 0.00159651 0.0016943 0.00170359 0.00178679 0.0016943 0.00174221 0.00159651 0.0016943 0.00153078 0.00161421 0.0016943 0.00174221 0.00161421 0.00169763 0.000479491 0.000548184 0.000613231 0.000686951 0.000548184 0.000616876 0.000686951 0.000769091 0.000613231 0.000686951 0.00074697 0.000900104 0.000686951 0.000769091 0.000900104 0.00102885 0.00046378 0.000605375 0.000610699 0.000792188 0.000605375 0.00074697 0.000792188 0.00101148 0.000610699 0.000792188 0.000757619 0.00105633 0.000792188 0.00101148 0.00105633 0.00138986 0.00074697 0.000900104 0.00101148 0.00124054 0.000900104 0.00102885 0.00124054 0.00146209 0.00101148 0.00124054 0.00138986 0.00175543 0.00124054 0.00146209 0.00175543 0.00212132 0.000322969 0.000540294 0.000406946 0.000666794 0.000540294 0.000757619 0.000666794 0.000997562 0.000406946 0.000666794 0.000490922 0.000834497 0.000666794 0.000997562 0.000834497 0.00128096 0 0.000245461 0 0.000274853 0.000245461 0.000490922 0.000274853 0.000594931 0 0.000274853 0 0.000313812 0.000274853 0.000594931 0.000313812 0.000689132 0.000490922 0.000834497 0.000594931 0.00102081 0.000834497 0.00128096 0.00102081 0.00160573 0.000594931 0.00102081 0.000689132 0.00120968 0.00102081 0.00160573 0.00120968 0.00193988 0.000757619 0.00105633 0.000997562 0.00141678 0.00105633 0.00138986 0.00141678 0.00193025 0.000997562 0.00141678 0.00128096 0.00187995 0.00141678 0.00193025 0.00187995 0.00263273 0.000616876 0.000651489 0.000769091 0.00083181 0.000651489 0.000686101 0.00083181 0.000864379 0.000769091 0.00083181 0.00102885 0.00112723 0.00083181 0.000864379 0.00112723 0.00118232 0.000686101 0.000670868 0.000864379 0.000856788 0.000670868 0.000655635 0.000856788 0.000798322 0.000864379 0.000856788 0.00118232 0.00118038 0.000856788 0.000798322 0.00118038 0.00109669 0.00102885 0.00112723 0.00146209 0.00163492 0.00112723 0.00118232 0.00163492 0.00173148 0.00146209 0.00163492 0.00212132 0.00242682 0.00163492 0.00173148 0.00242682 0.00261221 0.000655635 0.000559724 0.000798322 0.000689279 0.000559724 0.000463814 0.000689279 0.00055948 0.000798322 0.000689279 0.00109669 0.000928823 0.000689279 0.00055948 0.000928823 0.000655146 0.000655146 0.000327573 0.00098569 0.000517796 0.000327573 0 0.000517796 0 0.00098569 0.000517796 0.00155566 0.000822907 0.000517796 0 0.000822907 0 0 0.000313812 0 0.000346431 0.000313812 0.000689132 0.000346431 0.000765408 0 0.000346431 0 0.000366262 0.000346431 0.000765408 0.000366262 0.000811667 0.000689132 0.00120968 0.000765408 0.00136309 0.00120968 0.00193988 0.00136309 0.0022263 0.000765408 0.00136309 0.000811667 0.00145314 0.00136309 0.0022263 0.00145314 0.00240353 0 0.000366262 0 0.000364637 0.000366262 0.000811667 0.000364637 0.000819084 0 0.000364637 0 0.000337672 0.000364637 0.000819084 0.000337672 0.000763079 0 0.000337672 0 0.000285285 0.000337672 0.000763079 0.000285285 0.000640016 0 0.000285285 0 0.000228642 0.000285285 0.000640016 0.000228642 0.000457283 0.000457283 0.00084342 0.000228642 0.000443407 0.00084342 0.00144449 0.000443407 0.000766299 0.000228642 0.000443407 0 0 0.000443407 0.000766299 0 0 0.00261221 0.00266568 0.00400392 0.00411771 0.00266568 0.00250242 0.00411771 0.00391286 0.00250242 0.00213679 0.00391286 0.00336871 0.00213679 0.00155566 0.00336871 0.0024699 0.000822907 0 0.00131512 0 0.00240353 0.00385117 0.00246176 0.00396569 0.00246176 0.00396569 0.00231597 0.00377394 0.00231597 0.00377394 0.00198122 0.00325291 0.00198122 0.00325291 0.00144449 0.00238696 0.000766299 0.00127203 0 0 0.00311002 0.00339299 0.00380342 0.00413714 0.00339299 0.00365422 0.00413714 0.00446833 0.00380342 0.00413714 0.00455062 0.00506429 0.00413714 0.00446833 0.00506429 0.00544921 0.00365422 0.00384969 0.00446833 0.00474347 0.00384969 0.00400392 0.00474347 0.00492324 0.00175543 0.00193837 0.00213272 0.00235853 0.00193837 0.00212132 0.00235853 0.00258891 0.00213272 0.00235853 0.00251001 0.00281451 0.00235853 0.00258891 0.00281451 0.00311002 0.00193025 0.00222013 0.00228149 0.00263856 0.00222013 0.00251001 0.00263856 0.00301461 0.00228149 0.00263856 0.00263273 0.00309502 0.00263856 0.00301461 0.00309502 0.00356657 0.00400392 0.00406082 0.00492324 0.00505102 0.00406082 0.00411771 0.00505102 0.00506664 0.00411771 0.00401529 0.00506664 0.00501719 0.00401529 0.00391286 0.00501719 0.00483269 0.00455062 0.00506429 0.00552691 0.00608637 0.00506429 0.00544921 0.00608637 0.00670502 0.00251001 0.00281451 0.00301461 0.00341005 0.00281451 0.00311002 0.00341005 0.00380342 0.00301461 0.00341005 0.00356657 0.00406106 0.00341005 0.00380342 0.00406106 0.00455062 0.00187995 0.00225634 0.00214941 0.00259327 0.00225634 0.00263273 0.00259327 0.0030739 0.00214941 0.00259327 0.00241886 0.00294923 0.00259327 0.0030739 0.00294923 0.00352529 0.00391286 0.00364079 0.00483269 0.00457529 0.00364079 0.00336871 0.00457529 0.00417811 0.00336871 0.0029193 0.00417811 0.00370068 0.0029193 0.0024699 0.00370068 0.0031414 0.00210759 0.00106968 0.00272535 0.00136396 0.00106968 0 0.00136396 0 0.00272535 0.00136396 0.00344092 0.00177254 0.00136396 0 0.00177254 0 0.00177254 0 0.002274 0 0.00298794 0.0037065 0.0032597 0.00402863 0.0037065 0.00447786 0.00402863 0.00497885 0.0032597 0.00402863 0.0035107 0.00435091 0.00402863 0.00497885 0.00435091 0.00535425 0.0035107 0.00435091 0.00370084 0.00461843 0.00370084 0.00461843 0.00385117 0.00479511 0.00447786 0.00547493 0.00497885 0.00602256 0.00497885 0.00602256 0.00535425 0.00663041 0.00160573 0.00201229 0.00177281 0.00222227 0.00201229 0.00241886 0.00222227 0.00270692 0.00177281 0.00222227 0.00193988 0.00243793 0.00222227 0.00270692 0.00243793 0.00298794 0.00385117 0.00479511 0.00390843 0.00492086 0.00390843 0.00492086 0.00396569 0.00493845 0.00241886 0.00294923 0.00270692 0.00332808 0.00294923 0.00352529 0.00332808 0.00400331 0.00270692 0.00332808 0.00298794 0.0037065 0.00332808 0.00400331 0.0037065 0.00447786 0.00396569 0.00493845 0.00386982 0.00489174 0.00386982 0.00489174 0.00377394 0.00471388 0.00263273 0.00309502 0.0030739 0.00364161 0.00309502 0.00356657 0.00364161 0.0042348 0.0030739 0.00364161 0.00352529 0.00421466 0.00364161 0.0042348 0.00421466 0.00494605 0.00377394 0.00471388 0.00351343 0.00446467 0.00351343 0.00446467 0.00325291 0.00407906 0.00356657 0.00406106 0.0042348 0.00487819 0.00406106 0.00455062 0.00487819 0.00552691 0.0042348 0.00487819 0.00494605 0.00575423 0.00487819 0.00552691 0.00575423 0.00655956 0.0214535 0.0207245 0.0207226 0.0199453 0.0207245 0.019476 0.0199453 0.0188436 0.0207226 0.0199453 0.0194732 0.0188424 0.019476 0.0178692 0.0188436 0.0171935 0.0178692 0.0156204 0.0171935 0.0151434 0.0188436 0.0171935 0.0177799 0.0162818 0.0171935 0.0151434 0.0162818 0.0143402 0.0194732 0.0188424 0.0178658 0.0171917 0.0188424 0.0177799 0.0171917 0.016281 0.0178658 0.0171917 0.0156171 0.0151414 0.0171917 0.016281 0.0151414 0.0143391 0.0177799 0.0162818 0.016281 0.0149424 0.0162818 0.0143402 0.0149424 0.0131995 0.016281 0.0149424 0.0143391 0.0131991 0.0149424 0.0131995 0.0131991 0.0117052 0.0156204 0.0128361 0.0151434 0.0124296 0.0128361 0.0093594 0.0124296 0.00908396 0.0151434 0.0124296 0.0143402 0.0118079 0.0124296 0.00908396 0.0118079 0.00865413 0.0143402 0.0118079 0.0131995 0.0109058 0.0118079 0.00865413 0.0109058 0.00802574 0.0131995 0.0109058 0.0117052 0.0097206 0.0109058 0.00802574 0.0097206 0.00719754 0.00325291 0.00407906 0.00281993 0.00361455 0.00281993 0.00361455 0.00238696 0.00307007 0.0156171 0.0151414 0.0128333 0.0124278 0.0151414 0.0143391 0.0124278 0.0118069 0.0128333 0.0124278 0.00935734 0.00908258 0.0124278 0.0118069 0.00908258 0.0086533 0.00207559 0.00269783 0.00105359 0.00135012 0.00269783 0.00341756 0.00135012 0.00176075 0.00105359 0.00135012 0 0 0.00135012 0.00176075 0 0 0.0143391 0.0131991 0.0118069 0.0109052 0.0131991 0.0117052 0.0109052 0.00972042 0.0118069 0.0109052 0.0086533 0.00802528 0.0109052 0.00972042 0.00802528 0.00719733 0.00176075 0.00226405 0 0 0.00352529 0.00421466 0.00400331 0.00484149 0.00421466 0.00494605 0.00484149 0.00573752 0.00400331 0.00484149 0.00447786 0.00547493 0.00484149 0.00573752 0.00547493 0.00652751 0.00494605 0.00575423 0.00573752 0.00679035 0.00575423 0.00655956 0.00679035 0.00788438 0.00573752 0.00679035 0.00652751 0.00786892 0.00679035 0.00788438 0.00786892 0.00929798 0.00109669 0.00101276 0.00133534 0.00124065 0.00101276 0.000928823 0.00124065 0.00112585 0.00133534 0.00124065 0.00161275 0.00150117 0.00124065 0.00112585 0.00150117 0.00136342 0.000928823 0.000791985 0.00112585 0.000975602 0.000791985 0.000655146 0.000975602 0.000820418 0.00112585 0.000975602 0.00136342 0.00119111 0.000975602 0.000820418 0.00119111 0.00098569 0.00161275 0.00150117 0.00201899 0.00188015 0.00150117 0.00136342 0.00188015 0.00171295 0.00201899 0.00188015 0.00250242 0.0023196 0.00188015 0.00171295 0.0023196 0.00213679 0.00136342 0.00119111 0.00171295 0.00149264 0.00119111 0.00098569 0.00149264 0.00127067 0.00171295 0.00149264 0.00213679 0.00184622 0.00149264 0.00127067 0.00184622 0.00155566 0.000811667 0.00113241 0.000815375 0.00112609 0.00113241 0.00145314 0.00112609 0.00147311 0.000815375 0.00112609 0.000819084 0.00112104 0.00112609 0.00147311 0.00112104 0.00146038 0.0117052 0.0097206 0.00972042 0.00813016 0.0097206 0.00719754 0.00813016 0.00609817 0.00972042 0.00813016 0.00719733 0.0060981 0.00813016 0.00609817 0.0060981 0.00465295 0.00145314 0.00192834 0.00147311 0.00192191 0.00192834 0.00240353 0.00192191 0.00243265 0.00147311 0.00192191 0.00146038 0.00192115 0.00192191 0.00243265 0.00192115 0.00246176 0.00609817 0.00339465 0.00465295 0.00262692 0.0060981 0.00465295 0.00339459 0.0026269 0.00160259 0 0 0 0.000819084 0.00112104 0.000791081 0.00109247 0.00112104 0.00146038 0.00109247 0.00142557 0.000791081 0.00109247 0.000763079 0.00104755 0.00109247 0.00142557 0.00104755 0.00136715 0.00146038 0.00192115 0.00142557 0.0018761 0.00192115 0.00246176 0.0018761 0.00238887 0.00142557 0.0018761 0.00136715 0.00180472 0.0018761 0.00238887 0.00180472 0.00231597 0.000763079 0.00104755 0.000701548 0.000977832 0.00104755 0.00136715 0.000977832 0.00127592 0.000701548 0.000977832 0.000640016 0.000899205 0.000977832 0.00127592 0.000899205 0.00115839 0.00136715 0.00180472 0.00127592 0.00168229 0.00180472 0.00231597 0.00168229 0.0021486 0.00127592 0.00168229 0.00115839 0.00153053 0.00168229 0.0021486 0.00153053 0.00198122 0.00115839 0.00153053 0.00100091 0.00133441 0.00153053 0.00198122 0.00133441 0.00171285 0.00100091 0.00133441 0.00084342 0.00114395 0.00133441 0.00171285 0.00114395 0.00144449 0.00118232 0.00118135 0.0014569 0.00144545 0.00118135 0.00118038 0.00144545 0.00143474 0.0014569 0.00144545 0.00173148 0.00174941 0.00144545 0.00143474 0.00174941 0.00173184 0.00929798 0.0108209 0.0108076 0.0125553 0.0108209 0.0119475 0.0125553 0.0140424 0.0108076 0.0125553 0.0119237 0.0140313 0.0125553 0.0140424 0.0140313 0.0156643 0.00118038 0.00113854 0.00143474 0.00139429 0.00113854 0.00109669 0.00139429 0.00133534 0.00143474 0.00139429 0.00173184 0.00168562 0.00139429 0.00133534 0.00168562 0.00161275 0.00173148 0.00174941 0.00217185 0.00216138 0.00174941 0.00173184 0.00216138 0.00215663 0.00217185 0.00216138 0.00261221 0.00263895 0.00216138 0.00215663 0.00263895 0.00266568 0.00173184 0.00168562 0.00215663 0.00210209 0.00168562 0.00161275 0.00210209 0.00201899 0.00215663 0.00210209 0.00266568 0.00258405 0.00210209 0.00201899 0.00258405 0.00250242 0.00212132 0.00227407 0.00258891 0.00279968 0.00227407 0.00242682 0.00279968 0.00299348 0.00258891 0.00279968 0.00311002 0.00339299 0.00279968 0.00299348 0.00339299 0.00365422 0.00242682 0.00251952 0.00299348 0.00315355 0.00251952 0.00261221 0.00315355 0.00330807 0.00299348 0.00315355 0.00365422 0.00384969 0.00315355 0.00330807 0.00384969 0.00400392 0.00544921 0.00578557 0.00670502 0.00714235 0.00578557 0.00606617 0.00714235 0.00751375 0.00670502 0.00714235 0.00806759 0.00863563 0.00714235 0.00751375 0.00863563 0.0091066 0.00806759 0.00863563 0.00990219 0.0106065 0.00863563 0.0091066 0.0106065 0.0112023 0.00990219 0.0106065 0.0119475 0.012819 0.0106065 0.0112023 0.012819 0.0135513 0.00606617 0.00620103 0.00751375 0.00770147 0.00620103 0.00627779 0.00770147 0.00781142 0.00751375 0.00770147 0.0091066 0.00934993 0.00770147 0.00781142 0.00934993 0.00949898 0.00627779 0.00618069 0.00781142 0.0077097 0.00618069 0.0060163 0.0077097 0.00752188 0.00781142 0.0077097 0.00949898 0.00939063 0.0077097 0.00752188 0.00939063 0.00918202 0.0091066 0.00934993 0.0112023 0.0115075 0.00934993 0.00949898 0.0115075 0.0117006 0.0112023 0.0115075 0.0135513 0.0139174 0.0115075 0.0117006 0.0139174 0.0141869 0.00949898 0.00939063 0.0117006 0.0115881 0.00939063 0.00918202 0.0115881 0.0113586 0.0117006 0.0115881 0.0141869 0.0140763 0.0115881 0.0113586 0.0140763 0.0138244 0.00155566 0.00118928 0.00201278 0.00154908 0.00118928 0.000822907 0.00154908 0.00106901 0.00201278 0.00154908 0.0024699 0.0019145 0.00154908 0.00106901 0.0019145 0.00131512 0.0024699 0.0019145 0.0031414 0.00244054 0.0019145 0.00131512 0.00244054 0.00168662 0.0031414 0.00244054 0.00390599 0.00303862 0.00244054 0.00168662 0.00303862 0.00210759 0.00131512 0.000657561 0.00168662 0.000849127 0.000657561 0 0.000849127 0 0.00168662 0.000849127 0.00210759 0.00106968 0.000849127 0 0.00106968 0 0.0060163 0.00566019 0.00752188 0.00710207 0.00566019 0.00523669 0.00710207 0.00659163 0.00752188 0.00710207 0.00918202 0.00869304 0.00710207 0.00659163 0.00869304 0.00809476 0.00523669 0.00460829 0.00659163 0.00583622 0.00460829 0.00390599 0.00583622 0.00498658 0.00659163 0.00583622 0.00809476 0.00719487 0.00583622 0.00498658 0.00719487 0.00617784 0.00918202 0.00869304 0.0113586 0.0107983 0.00869304 0.00809476 0.0107983 0.0101086 0.0113586 0.0107983 0.0138244 0.0131596 0.0107983 0.0101086 0.0131596 0.0123815 0.00809476 0.00719487 0.0101086 0.00904726 0.00719487 0.00617784 0.00904726 0.00783365 0.0101086 0.00904726 0.0123815 0.0111507 0.00904726 0.00783365 0.0111507 0.00973693 0.00390599 0.00303862 0.00498658 0.00389923 0.00303862 0.00210759 0.00389923 0.00272535 0.00498658 0.00389923 0.00617784 0.00486852 0.00389923 0.00272535 0.00486852 0.00344092 0.00193988 0.00243793 0.00208309 0.00263814 0.00243793 0.00298794 0.00263814 0.0032597 0.00208309 0.00263814 0.0022263 0.00282259 0.00263814 0.0032597 0.00282259 0.0035107 0.0022263 0.00282259 0.00231492 0.00297708 0.00282259 0.0035107 0.00297708 0.00370084 0.00231492 0.00297708 0.00240353 0.00312735 0.00297708 0.00370084 0.00312735 0.00385117 0.00535425 0.00663041 0.00568382 0.00706044 0.00663041 0.00801225 0.00706044 0.00857247 0.00568382 0.00706044 0.00595891 0.00742591 0.00706044 0.00857247 0.00742591 0.00903693 0.00801225 0.00986306 0.00857247 0.0105592 0.00986306 0.0119237 0.0105592 0.0127866 0.00857247 0.0105592 0.00903693 0.0111481 0.0105592 0.0127866 0.0111481 0.0135114 0.00595891 0.00742591 0.00609237 0.00761133 0.00742591 0.00903693 0.00761133 0.00927717 0.00609237 0.00761133 0.00616854 0.00771998 0.00761133 0.00927717 0.00771998 0.0094241 0.0200906 0.0197068 0.0212149 0.0207876 0.00903693 0.0111481 0.00927717 0.0114495 0.0111481 0.0135114 0.0114495 0.0138734 0.00927717 0.0114495 0.0094241 0.0116398 0.0114495 0.0138734 0.0116398 0.0141395 0.00616854 0.00771998 0.00607486 0.00762042 0.00771998 0.0094241 0.00762042 0.00931688 0.00607486 0.00762042 0.00591474 0.00743575 0.00762042 0.00931688 0.00743575 0.00911029 0.0200703 0.0212012 0.0196853 0.0207723 0.0216279 0.0219689 0.02