<?xml version="1.0" ?> 
<!-- 
# vtk DataFile Version 3.0
#This file was generated by the deal.II library on 21:44:59 at 2021/4/29
-->
<VTKFile type="UnstructuredGrid" version="0.1" byte_order="LittleEndian">
<UnstructuredGrid>
<Piece NumberOfPoints="65536" NumberOfCells="16384" >
  <Points>
    <DataArray type="Float32" NumberOfComponents="3" format="ascii">
-1 -1 0
-0.984375 -1 0
-1 -0.984375 0
-0.984375 -0.984375 0
-0.984375 -1 0
-0.96875 -1 0
-0.984375 -0.984375 0
-0.96875 -0.984375 0
-1 -0.984375 0
-0.984375 -0.984375 0
-1 -0.96875 0
-0.984375 -0.96875 0
-0.984375 -0.984375 0
-0.96875 -0.984375 0
-0.984375 -0.96875 0
-0.96875 -0.96875 0
-0.96875 -1 0
-0.953125 -1 0
-0.96875 -0.984375 0
-0.953125 -0.984375 0
-0.953125 -1 0
-0.9375 -1 0
-0.953125 -0.984375 0
-0.9375 -0.984375 0
-0.96875 -0.984375 0
-0.953125 -0.984375 0
-0.96875 -0.96875 0
-0.953125 -0.96875 0
-0.953125 -0.984375 0
-0.9375 -0.984375 0
-0.953125 -0.96875 0
-0.9375 -0.96875 0
-1 -0.96875 0
-0.984375 -0.96875 0
-1 -0.953125 0
-0.984375 -0.953125 0
-0.984375 -0.96875 0
-0.96875 -0.96875 0
-0.984375 -0.953125 0
-0.96875 -0.953125 0
-1 -0.953125 0
-0.984375 -0.953125 0
-1 -0.9375 0
-0.984375 -0.9375 0
-0.984375 -0.953125 0
-0.96875 -0.953125 0
-0.984375 -0.9375 0
-0.96875 -0.9375 0
-0.96875 -0.96875 0
-0.953125 -0.96875 0
-0.96875 -0.953125 0
-0.953125 -0.953125 0
-0.953125 -0.96875 0
-0.9375 -0.96875 0
-0.953125 -0.953125 0
-0.9375 -0.953125 0
-0.96875 -0.953125 0
-0.953125 -0.953125 0
-0.96875 -0.9375 0
-0.953125 -0.9375 0
-0.953125 -0.953125 0
-0.9375 -0.953125 0
-0.953125 -0.9375 0
-0.9375 -0.9375 0
-0.9375 -1 0
-0.921875 -1 0
-0.9375 -0.984375 0
-0.921875 -0.984375 0
-0.921875 -1 0
-0.90625 -1 0
-0.921875 -0.984375 0
-0.90625 -0.984375 0
-0.9375 -0.984375 0
-0.921875 -0.984375 0
-0.9375 -0.96875 0
-0.921875 -0.96875 0
-0.921875 -0.984375 0
-0.90625 -0.984375 0
-0.921875 -0.96875 0
-0.90625 -0.96875 0
-0.90625 -1 0
-0.890625 -1 0
-0.90625 -0.984375 0
-0.890625 -0.984375 0
-0.890625 -1 0
-0.875 -1 0
-0.890625 -0.984375 0
-0.875 -0.984375 0
-0.90625 -0.984375 0
-0.890625 -0.984375 0
-0.90625 -0.96875 0
-0.890625 -0.96875 0
-0.890625 -0.984375 0
-0.875 -0.984375 0
-0.890625 -0.96875 0
-0.875 -0.96875 0
-0.9375 -0.96875 0
-0.921875 -0.96875 0
-0.9375 -0.953125 0
-0.921875 -0.953125 0
-0.921875 -0.96875 0
-0.90625 -0.96875 0
-0.921875 -0.953125 0
-0.90625 -0.953125 0
-0.9375 -0.953125 0
-0.921875 -0.953125 0
-0.9375 -0.9375 0
-0.921875 -0.9375 0
-0.921875 -0.953125 0
-0.90625 -0.953125 0
-0.921875 -0.9375 0
-0.90625 -0.9375 0
-0.90625 -0.96875 0
-0.890625 -0.96875 0
-0.90625 -0.953125 0
-0.890625 -0.953125 0
-0.890625 -0.96875 0
-0.875 -0.96875 0
-0.890625 -0.953125 0
-0.875 -0.953125 0
-0.90625 -0.953125 0
-0.890625 -0.953125 0
-0.90625 -0.9375 0
-0.890625 -0.9375 0
-0.890625 -0.953125 0
-0.875 -0.953125 0
-0.890625 -0.9375 0
-0.875 -0.9375 0
-1 -0.9375 0
-0.984375 -0.9375 0
-1 -0.921875 0
-0.984375 -0.921875 0
-0.984375 -0.9375 0
-0.96875 -0.9375 0
-0.984375 -0.921875 0
-0.96875 -0.921875 0
-1 -0.921875 0
-0.984375 -0.921875 0
-1 -0.90625 0
-0.984375 -0.90625 0
-0.984375 -0.921875 0
-0.96875 -0.921875 0
-0.984375 -0.90625 0
-0.96875 -0.90625 0
-0.96875 -0.9375 0
-0.953125 -0.9375 0
-0.96875 -0.921875 0
-0.953125 -0.921875 0
-0.953125 -0.9375 0
-0.9375 -0.9375 0
-0.953125 -0.921875 0
-0.9375 -0.921875 0
-0.96875 -0.921875 0
-0.953125 -0.921875 0
-0.96875 -0.90625 0
-0.953125 -0.90625 0
-0.953125 -0.921875 0
-0.9375 -0.921875 0
-0.953125 -0.90625 0
-0.9375 -0.90625 0
-1 -0.90625 0
-0.984375 -0.90625 0
-1 -0.890625 0
-0.984375 -0.890625 0
-0.984375 -0.90625 0
-0.96875 -0.90625 0
-0.984375 -0.890625 0
-0.96875 -0.890625 0
-1 -0.890625 0
-0.984375 -0.890625 0
-1 -0.875 0
-0.984375 -0.875 0
-0.984375 -0.890625 0
-0.96875 -0.890625 0
-0.984375 -0.875 0
-0.96875 -0.875 0
-0.96875 -0.90625 0
-0.953125 -0.90625 0
-0.96875 -0.890625 0
-0.953125 -0.890625 0
-0.953125 -0.90625 0
-0.9375 -0.90625 0
-0.953125 -0.890625 0
-0.9375 -0.890625 0
-0.96875 -0.890625 0
-0.953125 -0.890625 0
-0.96875 -0.875 0
-0.953125 -0.875 0
-0.953125 -0.890625 0
-0.9375 -0.890625 0
-0.953125 -0.875 0
-0.9375 -0.875 0
-0.9375 -0.9375 0
-0.921875 -0.9375 0
-0.9375 -0.921875 0
-0.921875 -0.921875 0
-0.921875 -0.9375 0
-0.90625 -0.9375 0
-0.921875 -0.921875 0
-0.90625 -0.921875 0
-0.9375 -0.921875 0
-0.921875 -0.921875 0
-0.9375 -0.90625 0
-0.921875 -0.90625 0
-0.921875 -0.921875 0
-0.90625 -0.921875 0
-0.921875 -0.90625 0
-0.90625 -0.90625 0
-0.90625 -0.9375 0
-0.890625 -0.9375 0
-0.90625 -0.921875 0
-0.890625 -0.921875 0
-0.890625 -0.9375 0
-0.875 -0.9375 0
-0.890625 -0.921875 0
-0.875 -0.921875 0
-0.90625 -0.921875 0
-0.890625 -0.921875 0
-0.90625 -0.90625 0
-0.890625 -0.90625 0
-0.890625 -0.921875 0
-0.875 -0.921875 0
-0.890625 -0.90625 0
-0.875 -0.90625 0
-0.9375 -0.90625 0
-0.921875 -0.90625 0
-0.9375 -0.890625 0
-0.921875 -0.890625 0
-0.921875 -0.90625 0
-0.90625 -0.90625 0
-0.921875 -0.890625 0
-0.90625 -0.890625 0
-0.9375 -0.890625 0
-0.921875 -0.890625 0
-0.9375 -0.875 0
-0.921875 -0.875 0
-0.921875 -0.890625 0
-0.90625 -0.890625 0
-0.921875 -0.875 0
-0.90625 -0.875 0
-0.90625 -0.90625 0
-0.890625 -0.90625 0
-0.90625 -0.890625 0
-0.890625 -0.890625 0
-0.890625 -0.90625 0
-0.875 -0.90625 0
-0.890625 -0.890625 0
-0.875 -0.890625 0
-0.90625 -0.890625 0
-0.890625 -0.890625 0
-0.90625 -0.875 0
-0.890625 -0.875 0
-0.890625 -0.890625 0
-0.875 -0.890625 0
-0.890625 -0.875 0
-0.875 -0.875 0
-0.875 -1 0
-0.859375 -1 0
-0.875 -0.984375 0
-0.859375 -0.984375 0
-0.859375 -1 0
-0.84375 -1 0
-0.859375 -0.984375 0
-0.84375 -0.984375 0
-0.875 -0.984375 0
-0.859375 -0.984375 0
-0.875 -0.96875 0
-0.859375 -0.96875 0
-0.859375 -0.984375 0
-0.84375 -0.984375 0
-0.859375 -0.96875 0
-0.84375 -0.96875 0
-0.84375 -1 0
-0.828125 -1 0
-0.84375 -0.984375 0
-0.828125 -0.984375 0
-0.828125 -1 0
-0.8125 -1 0
-0.828125 -0.984375 0
-0.8125 -0.984375 0
-0.84375 -0.984375 0
-0.828125 -0.984375 0
-0.84375 -0.96875 0
-0.828125 -0.96875 0
-0.828125 -0.984375 0
-0.8125 -0.984375 0
-0.828125 -0.96875 0
-0.8125 -0.96875 0
-0.875 -0.96875 0
-0.859375 -0.96875 0
-0.875 -0.953125 0
-0.859375 -0.953125 0
-0.859375 -0.96875 0
-0.84375 -0.96875 0
-0.859375 -0.953125 0
-0.84375 -0.953125 0
-0.875 -0.953125 0
-0.859375 -0.953125 0
-0.875 -0.9375 0
-0.859375 -0.9375 0
-0.859375 -0.953125 0
-0.84375 -0.953125 0
-0.859375 -0.9375 0
-0.84375 -0.9375 0
-0.84375 -0.96875 0
-0.828125 -0.96875 0
-0.84375 -0.953125 0
-0.828125 -0.953125 0
-0.828125 -0.96875 0
-0.8125 -0.96875 0
-0.828125 -0.953125 0
-0.8125 -0.953125 0
-0.84375 -0.953125 0
-0.828125 -0.953125 0
-0.84375 -0.9375 0
-0.828125 -0.9375 0
-0.828125 -0.953125 0
-0.8125 -0.953125 0
-0.828125 -0.9375 0
-0.8125 -0.9375 0
-0.8125 -1 0
-0.796875 -1 0
-0.8125 -0.984375 0
-0.796875 -0.984375 0
-0.796875 -1 0
-0.78125 -1 0
-0.796875 -0.984375 0
-0.78125 -0.984375 0
-0.8125 -0.984375 0
-0.796875 -0.984375 0
-0.8125 -0.96875 0
-0.796875 -0.96875 0
-0.796875 -0.984375 0
-0.78125 -0.984375 0
-0.796875 -0.96875 0
-0.78125 -0.96875 0
-0.78125 -1 0
-0.765625 -1 0
-0.78125 -0.984375 0
-0.765625 -0.984375 0
-0.765625 -1 0
-0.75 -1 0
-0.765625 -0.984375 0
-0.75 -0.984375 0
-0.78125 -0.984375 0
-0.765625 -0.984375 0
-0.78125 -0.96875 0
-0.765625 -0.96875 0
-0.765625 -0.984375 0
-0.75 -0.984375 0
-0.765625 -0.96875 0
-0.75 -0.96875 0
-0.8125 -0.96875 0
-0.796875 -0.96875 0
-0.8125 -0.953125 0
-0.796875 -0.953125 0
-0.796875 -0.96875 0
-0.78125 -0.96875 0
-0.796875 -0.953125 0
-0.78125 -0.953125 0
-0.8125 -0.953125 0
-0.796875 -0.953125 0
-0.8125 -0.9375 0
-0.796875 -0.9375 0
-0.796875 -0.953125 0
-0.78125 -0.953125 0
-0.796875 -0.9375 0
-0.78125 -0.9375 0
-0.78125 -0.96875 0
-0.765625 -0.96875 0
-0.78125 -0.953125 0
-0.765625 -0.953125 0
-0.765625 -0.96875 0
-0.75 -0.96875 0
-0.765625 -0.953125 0
-0.75 -0.953125 0
-0.78125 -0.953125 0
-0.765625 -0.953125 0
-0.78125 -0.9375 0
-0.765625 -0.9375 0
-0.765625 -0.953125 0
-0.75 -0.953125 0
-0.765625 -0.9375 0
-0.75 -0.9375 0
-0.875 -0.9375 0
-0.859375 -0.9375 0
-0.875 -0.921875 0
-0.859375 -0.921875 0
-0.859375 -0.9375 0
-0.84375 -0.9375 0
-0.859375 -0.921875 0
-0.84375 -0.921875 0
-0.875 -0.921875 0
-0.859375 -0.921875 0
-0.875 -0.90625 0
-0.859375 -0.90625 0
-0.859375 -0.921875 0
-0.84375 -0.921875 0
-0.859375 -0.90625 0
-0.84375 -0.90625 0
-0.84375 -0.9375 0
-0.828125 -0.9375 0
-0.84375 -0.921875 0
-0.828125 -0.921875 0
-0.828125 -0.9375 0
-0.8125 -0.9375 0
-0.828125 -0.921875 0
-0.8125 -0.921875 0
-0.84375 -0.921875 0
-0.828125 -0.921875 0
-0.84375 -0.90625 0
-0.828125 -0.90625 0
-0.828125 -0.921875 0
-0.8125 -0.921875 0
-0.828125 -0.90625 0
-0.8125 -0.90625 0
-0.875 -0.90625 0
-0.859375 -0.90625 0
-0.875 -0.890625 0
-0.859375 -0.890625 0
-0.859375 -0.90625 0
-0.84375 -0.90625 0
-0.859375 -0.890625 0
-0.84375 -0.890625 0
-0.875 -0.890625 0
-0.859375 -0.890625 0
-0.875 -0.875 0
-0.859375 -0.875 0
-0.859375 -0.890625 0
-0.84375 -0.890625 0
-0.859375 -0.875 0
-0.84375 -0.875 0
-0.84375 -0.90625 0
-0.828125 -0.90625 0
-0.84375 -0.890625 0
-0.828125 -0.890625 0
-0.828125 -0.90625 0
-0.8125 -0.90625 0
-0.828125 -0.890625 0
-0.8125 -0.890625 0
-0.84375 -0.890625 0
-0.828125 -0.890625 0
-0.84375 -0.875 0
-0.828125 -0.875 0
-0.828125 -0.890625 0
-0.8125 -0.890625 0
-0.828125 -0.875 0
-0.8125 -0.875 0
-0.8125 -0.9375 0
-0.796875 -0.9375 0
-0.8125 -0.921875 0
-0.796875 -0.921875 0
-0.796875 -0.9375 0
-0.78125 -0.9375 0
-0.796875 -0.921875 0
-0.78125 -0.921875 0
-0.8125 -0.921875 0
-0.796875 -0.921875 0
-0.8125 -0.90625 0
-0.796875 -0.90625 0
-0.796875 -0.921875 0
-0.78125 -0.921875 0
-0.796875 -0.90625 0
-0.78125 -0.90625 0
-0.78125 -0.9375 0
-0.765625 -0.9375 0
-0.78125 -0.921875 0
-0.765625 -0.921875 0
-0.765625 -0.9375 0
-0.75 -0.9375 0
-0.765625 -0.921875 0
-0.75 -0.921875 0
-0.78125 -0.921875 0
-0.765625 -0.921875 0
-0.78125 -0.90625 0
-0.765625 -0.90625 0
-0.765625 -0.921875 0
-0.75 -0.921875 0
-0.765625 -0.90625 0
-0.75 -0.90625 0
-0.8125 -0.90625 0
-0.796875 -0.90625 0
-0.8125 -0.890625 0
-0.796875 -0.890625 0
-0.796875 -0.90625 0
[...]
  <PointData Scalars="scalars">
    <DataArray type="Float32" Name="U" format="ascii">
0 0 0 2.04903e-05 0 0 2.04903e-05 4.1116e-05 0 2.04903e-05 0 2.47066e-05 2.04903e-05 4.1116e-05 2.47066e-05 4.92136e-05 0 0 4.1116e-05 6.20665e-05 0 0 6.20665e-05 8.27506e-05 4.1116e-05 6.20665e-05 4.92136e-05 7.34437e-05 6.20665e-05 8.27506e-05 7.34437e-05 9.81662e-05 0 2.47066e-05 0 4.38328e-05 2.47066e-05 4.92136e-05 4.38328e-05 8.81082e-05 0 4.38328e-05 0 4.22283e-05 4.38328e-05 8.81082e-05 4.22283e-05 8.39019e-05 4.92136e-05 7.34437e-05 8.81082e-05 0.000132465 7.34437e-05 9.81662e-05 0.000132465 0.000176901 8.81082e-05 0.000132465 8.39019e-05 0.000126237 0.000132465 0.000176901 0.000126237 0.000168016 0 0 8.27506e-05 0.000102812 0 0 0.000102812 0.000120464 8.27506e-05 0.000102812 9.81662e-05 0.000124354 0.000102812 0.000120464 0.000124354 0.000154443 0 0 0.000120464 0.000134999 0 0 0.000134999 0.000144537 0.000120464 0.000134999 0.000154443 0.000189882 0.000134999 0.000144537 0.000189882 0.000232689 9.81662e-05 0.000124354 0.000176901 0.000219228 0.000124354 0.000154443 0.000219228 0.000258374 0.000176901 0.000219228 0.000168016 0.000213174 0.000219228 0.000258374 0.000213174 0.000259939 0.000154443 0.000189882 0.000258374 0.000291323 0.000189882 0.000232689 0.000291323 0.000318826 0.000258374 0.000291323 0.000259939 0.000313679 0.000291323 0.000318826 0.000313679 0.000368204 0 4.22283e-05 0 5.94042e-05 4.22283e-05 8.39019e-05 5.94042e-05 0.000118055 0 5.94042e-05 0 6.74073e-05 5.94042e-05 0.000118055 6.74073e-05 0.000134306 8.39019e-05 0.000126237 0.000118055 0.000173469 0.000126237 0.000168016 0.000173469 0.000225787 0.000118055 0.000173469 0.000134306 0.000198997 0.000173469 0.000225787 0.000198997 0.000262824 0 6.74073e-05 0 8.87913e-05 6.74073e-05 0.000134306 8.87913e-05 0.000174174 0 8.87913e-05 0 9.49058e-05 8.87913e-05 0.000174174 9.49058e-05 0.000190586 0.000134306 0.000198997 0.000174174 0.000259223 0.000198997 0.000262824 0.000259223 0.000333328 0.000174174 0.000259223 0.000190586 0.000279695 0.000259223 0.000333328 0.000279695 0.000372024 0.000168016 0.000213174 0.000225787 0.000269866 0.000213174 0.000259939 0.000269866 0.000307336 0.000225787 0.000269866 0.000262824 0.000323838 0.000269866 0.000307336 0.000323838 0.000384317 0.000259939 0.000313679 0.000307336 0.000331444 0.000313679 0.000368204 0.000331444 0.00035013 0.000307336 0.000331444 0.000384317 0.000441508 0.000331444 0.00035013 0.000441508 0.000493574 0.000262824 0.000323838 0.000333328 0.000405514 0.000323838 0.000384317 0.000405514 0.000458134 0.000333328 0.000405514 0.000372024 0.000451546 0.000405514 0.000458134 0.000451546 0.00053883 0.000384317 0.000441508 0.000458134 0.000507038 0.000441508 0.000493574 0.000507038 0.00053075 0.000458134 0.000507038 0.00053883 0.000606526 0.000507038 0.00053075 0.000606526 0.00068742 0 0 0.000144537 0.000150569 0 0 0.000150569 0.000154149 0.000144537 0.000150569 0.000232689 0.000280136 0.000150569 0.000154149 0.000280136 0.000328853 0 0 0.000154149 0.000160848 0 0 0.000160848 0.000172195 0.000154149 0.000160848 0.000328853 0.000369347 0.000160848 0.000172195 0.000369347 0.000399119 0.000232689 0.000280136 0.000318826 0.000342918 0.000280136 0.000328853 0.000342918 0.000371695 0.000318826 0.000342918 0.000368204 0.000424223 0.000342918 0.000371695 0.000424223 0.000465449 0.000328853 0.000369347 0.000371695 0.000413863 0.000369347 0.000399119 0.000413863 0.000473642 0.000371695 0.000413863 0.000465449 0.000488378 0.000413863 0.000473642 0.000488378 0.000481506 0 0 0.000172195 0.000190063 0 0 0.000190063 0.000207178 0.000172195 0.000190063 0.000399119 0.000417453 0.000190063 0.000207178 0.000417453 0.000440724 0 0 0.000207178 0.00022078 0 0 0.00022078 0.000230839 0.000207178 0.00022078 0.000440724 0.000476505 0.00022078 0.000230839 0.000476505 0.000526237 0.000399119 0.000417453 0.000473642 0.000543644 0.000417453 0.000440724 0.000543644 0.000598904 0.000473642 0.000543644 0.000481506 0.000465251 0.000543644 0.000598904 0.000465251 0.000462053 0.000440724 0.000476505 0.000598904 0.000620212 0.000476505 0.000526237 0.000620212 0.000604629 0.000598904 0.000620212 0.000462053 0.000508567 0.000620212 0.000604629 0.000508567 0.000597976 0.000368204 0.000424223 0.00035013 0.000360016 0.000424223 0.000465449 0.000360016 0.000381482 0.00035013 0.000360016 0.000493574 0.00053368 0.000360016 0.000381482 0.00053368 0.00054923 0.000465449 0.000488378 0.000381482 0.000411355 0.000488378 0.000481506 0.000411355 0.000467606 0.000381482 0.000411355 0.00054923 0.000534247 0.000411355 0.000467606 0.000534247 0.000475578 0.000493574 0.00053368 0.00053075 0.000554809 0.00053368 0.00054923 0.000554809 0.000558969 0.00053075 0.000554809 0.00068742 0.000738037 0.000554809 0.000558969 0.000738037 0.000804704 0.00054923 0.000534247 0.000558969 0.000575254 0.000534247 0.000475578 0.000575254 0.000580414 0.000558969 0.000575254 0.000804704 0.000824736 0.000575254 0.000580414 0.000824736 0.0008616 0.000481506 0.000465251 0.000467606 0.000516157 0.000465251 0.000462053 0.000516157 0.000544797 0.000467606 0.000516157 0.000475578 0.000397877 0.000516157 0.000544797 0.000397877 0.000306994 0.000462053 0.000508567 0.000544797 0.000494336 0.000508567 0.000597976 0.000494336 0.00038672 0.000544797 0.000494336 0.000306994 0.000260306 0.000494336 0.00038672 0.000260306 0.000228243 0.000475578 0.000397877 0.000580414 0.000592193 0.000397877 0.000306994 0.000592193 0.000577065 0.000580414 0.000592193 0.0008616 0.000835507 0.000592193 0.000577065 0.000835507 0.000826414 0.000306994 0.000260306 0.000577065 0.000529311 0.000260306 0.000228243 0.000529311 0.00044073 0.000577065 0.000529311 0.000826414 0.000741507 0.000529311 0.00044073 0.000741507 0.000670222 0 9.49058e-05 0 0.000118031 9.49058e-05 0.000190586 0.000118031 0.00023556 0 0.000118031 0 0.000132832 0.000118031 0.00023556 0.000132832 0.000258906 0.000190586 0.000279695 0.00023556 0.000349957 0.000279695 0.000372024 0.000349957 0.000462045 0.00023556 0.000349957 0.000258906 0.000393052 0.000349957 0.000462045 0.000393052 0.000506804 0 0.000132832 0 0.000132666 0.000132832 0.000258906 0.000132666 0.000271374 0 0.000132666 0 0.000149691 0.000132666 0.000271374 0.000149691 0.000299916 0.000258906 0.000393052 0.000271374 0.000394319 0.000393052 0.000506804 0.000394319 0.000537141 0.000271374 0.000394319 0.000299916 0.000449351 0.000394319 0.000537141 0.000449351 0.000597455 0.000372024 0.000451546 0.000462045 0.0005687 0.000451546 0.00053883 0.0005687 0.000668868 0.000462045 0.0005687 0.000506804 0.000635491 0.0005687 0.000668868 0.000635491 0.000730147 0.00053883 0.000606526 0.000668868 0.00076324 0.000606526 0.00068742 0.00076324 0.000842675 0.000668868 0.00076324 0.000730147 0.00084444 0.00076324 0.000842675 0.00084444 0.000914153 0.000506804 0.000635491 0.000537141 0.000648577 0.000635491 0.000730147 0.000648577 0.000798722 0.000537141 0.000648577 0.000597455 0.000744723 0.000648577 0.000798722 0.000744723 0.000879621 0.000730147 0.00084444 0.000798722 0.000901582 0.00084444 0.000914153 0.000901582 0.00106591 0.000798722 0.000901582 0.000879621 0.00101614 0.000901582 0.00106591 0.00101614 0.00111758 0 0.000149691 0 0.000148895 0.000149691 0.000299916 0.000148895 0.000284345 0 0.000148895 0 0.000165018 0.000148895 0.000284345 0.000165018 0.000345119 0.000299916 0.000449351 0.000284345 0.000442701 0.000449351 0.000597455 0.000442701 0.000562904 0.000284345 0.000442701 0.000345119 0.000499178 0.000442701 0.000562904 0.000499178 0.000698905 0 0.000165018 0 0.000172746 0.000165018 0.000345119 0.000172746 0.000347532 0 0.000172746 0 0.000176686 0.000172746 0.000347532 0.000176686 0.000337607 0.000345119 0.000499178 0.000347532 0.000520978 0.000499178 0.000698905 0.000520978 0.000698397 0.000347532 0.000520978 0.000337607 0.000535108 0.000520978 0.000698397 0.000535108 0.000686052 0.000597455 0.000744723 0.000562904 0.00073014 0.000744723 0.000879621 0.00073014 0.000842069 0.000562904 0.00073014 0.000698905 0.000841132 0.00073014 0.000842069 0.000841132 0.00105995 0.000879621 0.00101614 0.000842069 0.00102607 0.00101614 0.00111758 0.00102607 0.00114837 0.000842069 0.00102607 0.00105995 0.00118044 0.00102607 0.00114837 0.00118044 0.00141032 0.000698905 0.000841132 0.000698397 0.000880422 0.000841132 0.00105995 0.000880422 0.00106191 0.000698397 0.000880422 0.000686052 0.000906686 0.000880422 0.00106191 0.000906686 0.00105329 0.00105995 0.00118044 0.00106191 0.00126796 0.00118044 0.00141032 0.00126796 0.0014551 0.00106191 0.00126796 0.00105329 0.00129552 0.00126796 0.0014551 0.00129552 0.00144711 0.00068742 0.000738037 0.000842675 0.000918491 0.000738037 0.000804704 0.000918491 0.000963209 0.000842675 0.000918491 0.000914153 0.00100867 0.000918491 0.000963209 0.00100867 0.00106146 0.000804704 0.000824736 0.000963209 0.00100916 0.000824736 0.0008616 0.00100916 0.00100104 0.000963209 0.00100916 0.00106146 0.00114908 0.00100916 0.00100104 0.00114908 0.00121475 0.000914153 0.00100867 0.00106591 0.00115979 0.00100867 0.00106146 0.00115979 0.00132841 0.00106591 0.00115979 0.00111758 0.00123685 0.00115979 0.00132841 0.00123685 0.00129835 0.00106146 0.00114908 0.00132841 0.00138359 0.00114908 0.00121475 0.00138359 0.00150895 0.00132841 0.00138359 0.00129835 0.00142996 0.00138359 0.00150895 0.00142996 0.00148879 0.0008616 0.000835507 0.00100104 0.0010145 0.000835507 0.000826414 0.0010145 0.000966321 0.00100104 0.0010145 0.00121475 0.0013051 0.0010145 0.000966321 0.0013051 0.00137298 0.000826414 0.000741507 0.000966321 0.00099534 0.000741507 0.000670222 0.00099534 0.000960618 0.000966321 0.00099534 0.00137298 0.00138686 0.00099534 0.000960618 0.00138686 0.00136986 0.00121475 0.0013051 0.00150895 0.00148464 0.0013051 0.00137298 0.00148464 0.00155353 0.00150895 0.00148464 0.00148879 0.00168861 0.00148464 0.00155353 0.00168861 0.00175546 0.00137298 0.00138686 0.00155353 0.00151353 0.00138686 0.00136986 0.00151353 0.00161058 0.00155353 0.00151353 0.00175546 0.00198034 0.00151353 0.00161058 0.00198034 0.00196081 0.00111758 0.00123685 0.00114837 0.0013569 0.00123685 0.00129835 0.0013569 0.00149922 0.00114837 0.0013569 0.00141032 0.0014985 0.0013569 0.00149922 0.0014985 0.00174122 0.00129835 0.00142996 0.00149922 0.00170394 0.00142996 0.00148879 0.00170394 0.00183757 0.00149922 0.00170394 0.00174122 0.0018174 0.00170394 0.00183757 0.0018174 0.00210484 0.00141032 0.0014985 0.0014551 0.00170083 0.0014985 0.00174122 0.00170083 0.00188067 0.0014551 0.00170083 0.00144711 0.00171104 0.00170083 0.00188067 0.00171104 0.00189257 0.00174122 0.0018174 0.00188067 0.00216113 0.0018174 0.00210484 0.00216113 0.00229837 0.00188067 0.00216113 0.00189257 0.00218674 0.00216113 0.00229837 0.00218674 0.00243486 0.00148879 0.00168861 0.00183757 0.00197793 0.00168861 0.00175546 0.00197793 0.00210332 0.00183757 0.00197793 0.00210484 0.00221461 0.00197793 0.00210332 0.00221461 0.00254246 0.00175546 0.00198034 0.00210332 0.00220268 0.00198034 0.00196081 0.00220268 0.00242727 0.00210332 0.00220268 0.00254246 0.00266302 0.00220268 0.00242727 0.00266302 0.00292801 0.00210484 0.00221461 0.00229837 0.00260353 0.00221461 0.00254246 0.00260353 0.00270182 0.00229837 0.00260353 0.00243486 0.0027483 0.00260353 0.00270182 0.0027483 0.00306555 0.00254246 0.00266302 0.00270182 0.00308041 0.00266302 0.00292801 0.00308041 0.00321398 0.00270182 0.00308041 0.00306555 0.00334065 0.00308041 0.00321398 0.00334065 0.00371441 0 0 0.000230839 0.000253545 0 0 0.000253545 0.000298026 0.000230839 0.000253545 0.000526237 0.000554497 0.000253545 0.000298026 0.000554497 0.000538837 0 0 0.000298026 0.000351328 0 0 0.000351328 0.00036857 0.000298026 0.000351328 0.000538837 0.000488843 0.000351328 0.00036857 0.000488843 0.00048713 0.000526237 0.000554497 0.000604629 0.000602184 0.000554497 0.000538837 0.000602184 0.00065342 0.000604629 0.000602184 0.000597976 0.000679762 0.000602184 0.00065342 0.000679762 0.000682651 0.000538837 0.000488843 0.00065342 0.000766314 0.000488843 0.00048713 0.000766314 0.000834825 0.00065342 0.000766314 0.000682651 0.000580094 0.000766314 0.000834825 0.000580094 0.000462183 0 0 0.00036857 0.000319667 0 0 0.000319667 0.000250088 0.00036857 0.000319667 0.00048713 0.000588767 0.000319667 0.000250088 0.000588767 0.000738109 0 0 0.000250088 0.000250557 0 0 0.000250557 0.00036266 0.000250088 0.000250557 0.000738109 0.000779603 0.000250557 0.00036266 0.000779603 0.000646278 0.00048713 0.000588767 0.000834825 0.000784675 0.000588767 0.000738109 0.000784675 0.000632468 0.000834825 0.000784675 0.000462183 0.00040849 0.000784675 0.000632468 0.00040849 0.000444775 0.000738109 0.000779603 0.000632468 0.000553292 0.000779603 0.000646278 0.000553292 0.000598278 0.000632468 0.000553292 0.000444775 0.000409523 0.000553292 0.000598278 0.000409523 0.000286977 0.000597976 0.000679762 0.00038672 0.000241359 0.000679762 0.000682651 0.000241359 0.000157925 0.00038672 0.000241359 0.000228243 0.000227061 0.000241359 0.000157925 0.000227061 0.000148374 0.000682651 0.000580094 0.000157925 0.000144141 0.000580094 0.000462183 0.000144141 0.000164314 0.000157925 0.000144141 0.000148374 2.8872e-05 0.000144141 0.000164314 2.8872e-05 -0.000177971 0.000228243 0.000227061 0.00044073 0.000303649 0.000227061 0.000148374 0.000303649 0.000167743 0.00044073 0.000303649 0.000670222 0.000535079 0.000303649 0.000167743 0.000535079 0.000430741 0.000148374 2.8872e-05 0.000167743 -1.57297e-05 2.8872e-05 -0.000177971 -1.57297e-05 -0.0001627 0.000167743 -1.57297e-05 0.000430741 0.000316927 -1.57297e-05 -0.0001627 0.000316927 0.000199419 0.000462183 0.00040849 0.000164314 0.000119413 0.00040849 0.000444775 0.000119413 -1.7526e-05 0.000164314 0.000119413 -0.000177971 -0.000345585 0.000119413 -1.7526e-05 -0.000345585 -0.000525733 0.000444775 0.000409523 -1.7526e-05 -0.000155245 0.000409523 0.000286977 -0.000155245 -0.000301083 -1.7526e-05 -0.000155245 -0.000525733 -0.00068543 -0.000155245 -0.000301083 -0.00068543 -0.000876584 -0.000177971 -0.000345585 -0.0001627 -0.000387991 -0.000345585 -0.000525733 -0.000387991 -0.000547918 -0.0001627 -0.000387991 0.000199419 5.84284e-05 -0.000387991 -0.000547918 5.84284e-05 -0.000203626 -0.000525733 -0.00068543 -0.000547918 -0.000808706 -0.00068543 -0.000876584 -0.000808706 -0.000995787 -0.000547918 -0.000808706 -0.000203626 -0.000404671 -0.000808706 -0.000995787 -0.000404671 -0.000742822 0 0 0.00036266 0.00047677 0 0 0.00047677 0.00049293 0.00036266 0.00047677 0.000646278 0.000497494 0.00047677 0.00049293 0.000497494 0.000477221 0 0 0.00049293 0.000416783 0 0 0.000416783 0.000357378 0.00049293 0.000416783 0.000477221 0.000547336 0.000416783 0.000357378 0.000547336 0.000518225 0.000646278 0.000497494 0.000598278 0.000630738 0.000497494 0.000477221 0.000630738 0.000502246 0.000598278 0.000630738 0.000286977 0.000127686 0.000630738 0.000502246 0.000127686 6.99834e-05 0.000477221 0.000547336 0.000502246 0.000304263 0.000547336 0.000518225 0.000304263 0.000225904 0.000502246 0.000304263 6.99834e-05 -5.97012e-05 0.000304263 0.000225904 -5.97012e-05 -0.000370781 0 0 0.000357378 0.000296725 0 0 0.000296725 0.000235873 0.000357378 0.000296725 0.000518225 0.00046958 0.000296725 0.000235873 0.00046958 0.000412896 0 0 0.000235873 0.000275163 0 0 0.000275163 0.000335619 0.000235873 0.000275163 0.000412896 0.000195584 0.000275163 0.000335619 0.000195584 -0.000177632 0.000518225 0.00046958 0.000225904 9.33542e-05 0.00046958 0.000412896 9.33542e-05 -0.000163661 0.000225904 9.33542e-05 -0.000370781 -0.000701476 9.33542e-05 -0.000163661 -0.000701476 -0.000899714 0.000412896 0.000195584 -0.000163661 -0.000445562 0.000195584 -0.000177632 -0.000445562 -0.000558613 -0.000163661 -0.000445562 -0.000899714 -0.00096787 -0.000445562 -0.000558613 -0.00096787 -0.00125563 0.000286977 0.000127686 -0.000301083 -0.000443016 0.000127686 6.99834e-05 -0.000443016 -0.000719546 -0.000301083 -0.000443016 -0.000876584 -0.00107968 -0.000443016 -0.000719546 -0.00107968 -0.0012235 6.99834e-05 -5.97012e-05 -0.000719546 -0.000913807 -5.97012e-05 -0.000370781 -0.000913807 -0.00106057 -0.000719546 -0.000913807 -0.0012235 -0.00143731 -0.000913807 -0.00106057 -0.00143731 -0.00158496 -0.000876584 -0.00107968 -0.000995787 -0.00125871 -0.00107968 -0.0012235 -0.00125871 -0.00146585 -0.000995787 -0.00125871 -0.000742822 -0.000991867 -0.00125871 -0.00146585 -0.000991867 -0.00152876 -0.0012235 -0.00143731 -0.00146585 -0.00177503 -0.00143731 -0.00158496 -0.00177503 -0.00225133 -0.00146585 -0.00177503 -0.00152876 -0.00184005 -0.00177503 -0.00225133 -0.00184005 -0.00211582 -0.000370781 -0.000701476 -0.00106057 -0.00113067 -0.000701476 -0.000899714 -0.00113067 -0.00137338 -0.00106057 -0.00113067 -0.00158496 -0.00196282 -0.00113067 -0.00137338 -0.00196282 -0.00227744 -0.000899714 -0.00096787 -0.00137338 -0.00181478 -0.00096787 -0.00125563 -0.00181478 -0.00223182 -0.00137338 -0.00181478 -0.00227744 -0.00261715 -0.00181478 -0.00223182 -0.00261715 -0.00274674 -0.00158496 -0.00196282 -0.00225133 -0.00255391 -0.00196282 -0.00227744 -0.00255391 -0.00283405 -0.00225133 -0.00255391 -0.00211582 -0.00233431 -0.00255391 -0.00283405 -0.00233431 -0.00278746 -0.00227744 -0.00261715 -0.00283405 -0.00290171 -0.00261715 -0.00274674 -0.00290171 -0.00349488 -0.00283405 -0.00290171 -0.00278746 -0.00346584 -0.00290171 -0.00349488 -0.00346584 -0.00362691 0.000670222 0.000535079 0.000960618 0.00101724 0.000535079 0.000430741 0.00101724 0.000918785 0.000960618 0.00101724 0.00136986 0.00124562 0.00101724 0.000918785 0.00124562 0.00122073 0.000430741 0.000316927 0.000918785 0.000847464 0.000316927 0.000199419 0.000847464 0.00060704 0.000918785 0.000847464 0.00122073 0.00110662 0.000847464 0.00060704 0.00110662 0.00116174 0.00136986 0.00124562 0.00161058 0.00163343 0.00124562 0.00122073 0.00163343 0.00168206 0.00161058 0.00163343 0.00196081 0.00213549 0.00163343 0.00168206 0.00213549 0.00208254 0.00122073 0.00110662 0.00168206 0.00164651 0.00110662 0.00116174 0.00164651 0.00154606 0.00168206 0.00164651 0.00208254 0.00231304 0.00164651 0.00154606 0.00231304 0.00233371 0.000199419 5.84284e-05 0.00060704 0.000471678 5.84284e-05 -0.000203626 0.000471678 0.000285274 0.00060704 0.000471678 0.00116174 0.000941129 0.000471678 0.000285274 0.000941129 0.000853711 -0.000203626 -0.000404671 0.000285274 7.48697e-05 -0.000404671 -0.000742822 7.48697e-05 -0.000215793 0.000285274 7.48697e-05 0.000853711 0.000570776 7.48697e-05 -0.000215793 0.000570776 0.000597839 0.00116174 0.000941129 0.00154606 0.0016124 0.000941129 0.000853711 0.0016124 0.00155774 0.00154606 0.0016124 0.00233371 0.00246058 0.0016124 0.00155774 0.00246058 0.0024015 0.000853711 0.000570776 0.00155774 0.00170827 0.000570776 0.000597839 0.00170827 0.00136919 0.00155774 0.00170827 0.0024015 0.00233735 0.00170827 0.00136919 0.00233735 0.00249338 0.00196081 0.00213549 0.00242727 0.00253375 0.00213549 0.00208254 0.00253375 0.00283819 0.00242727 0.00253375 0.00292801 0.00303667 0.00253375 0.00283819 0.00303667 0.0032346 0.00208254 0.00231304 0.00283819 0.0028212 0.00231304 0.00233371 0.0028212 0.00310108 0.00283819 0.0028212 0.0032346 0.00348771 0.0028212 0.00310108 0.00348771 0.00370154 0.00292801 0.00303667 0.00321398 0.00369101 0.00303667 0.0032346 0.00369101 0.00386706 0.00321398 0.00369101 0.00371441 0.00393708 0.00369101 0.00386706 0.00393708 0.0043967 0.0032346 0.00348771 0.00386706 0.0043297 0.00348771 0.00370154 0.0043297 0.00451814 0.00386706 0.0043297 0.0043967 0.00458459 0.0043297 0.00451814 0.00458459 0.00509749 0.00233371 0.00246058 0.00310108 0.00303381 0.00246058 0.0024015 0.00303381 0.00340913 0.00310108 0.00303381 0.00370154 0.00415969 0.00303381 0.00340913 0.00415969 0.00430089 0.0024015 0.00233735 0.00340913 0.00347676 0.00233735 0.00249338 0.00347676 0.00383054 0.00340913 0.00347676 0.00430089 0.00479173 0.00347676 0.00383054 0.00479173 0.00473202 0.00370154 0.00415969 0.00451814 0.00483908 0.00415969 0.00430089 0.00483908 0.00508117 0.00451814 0.00483908 0.00509749 0.00533009 0.00483908 0.00508117 0.00533009 0.00594257 0.00430089 0.00479173 0.00508117 0.00530626 0.00479173 0.004732