# vtk DataFile Version 3.0
#This file was generated by the deal.II library on 2021/4/23 at 0:45:38
ASCII
DATASET UNSTRUCTURED_GRID

FIELD FieldData 2
CYCLE 1 1 int
17
TIME 1 1 double
0.034
POINTS 1464 double
-1 -1 0
-0.75 -1 0
-1 -0.75 0
-0.75 -0.75 0
-0.75 -1 0
-0.5 -1 0
-0.75 -0.75 0
-0.5 -0.75 0
-1 -0.75 0
-0.75 -0.75 0
-1 -0.5 0
-0.75 -0.5 0
-0.75 -0.75 0
-0.5 -0.75 0
-0.75 -0.5 0
-0.5 -0.5 0
-0.5 -1 0
-0.25 -1 0
-0.5 -0.75 0
-0.25 -0.75 0
-0.25 -1 0
0 -1 0
-0.25 -0.75 0
0 -0.75 0
-0.5 -0.75 0
-0.25 -0.75 0
-0.5 -0.5 0
-0.25 -0.5 0
-0.25 -0.75 0
0 -0.75 0
-0.25 -0.5 0
0 -0.5 0
-1 -0.5 0
-0.75 -0.5 0
-1 -0.25 0
-0.75 -0.25 0
-0.75 -0.5 0
-0.5 -0.5 0
-0.75 -0.25 0
-0.5 -0.25 0
-1 -0.25 0
-0.75 -0.25 0
-1 0 0
-0.75 0 0
-0.75 -0.25 0
-0.5 -0.25 0
-0.75 0 0
-0.5 0 0
-0.5 -0.5 0
-0.25 -0.5 0
-0.5 -0.25 0
-0.25 -0.25 0
-0.25 -0.5 0
0 -0.5 0
-0.25 -0.25 0
0 -0.25 0
-0.5 -0.25 0
-0.25 -0.25 0
-0.5 0 0
-0.25 0 0
-0.25 -0.25 0
0 -0.25 0
-0.25 0 0
0 0 0
0 -1 0
0.25 -1 0
0 -0.75 0
0.25 -0.75 0
-1 0 0
-0.75 0 0
-1 0.25 0
-0.75 0.25 0
-0.75 0 0
-0.5 0 0
-0.75 0.25 0
-0.5 0.25 0
-1 0.25 0
-0.75 0.25 0
-1 0.5 0
-0.75 0.5 0
-0.75 0.25 0
-0.5 0.25 0
-0.75 0.5 0
-0.5 0.5 0
-0.5 0 0
-0.25 0 0
-0.5 0.25 0
-0.25 0.25 0
-0.25 0 0
0 0 0
-0.25 0.25 0
0 0.25 0
-0.5 0.25 0
-0.25 0.25 0
-0.5 0.5 0
-0.25 0.5 0
-0.25 0.25 0
0 0.25 0
-0.25 0.5 0
0 0.5 0
-1 0.5 0
-0.75 0.5 0
-1 0.75 0
-0.75 0.75 0
-0.75 0.5 0
-0.5 0.5 0
-0.75 0.75 0
-0.5 0.75 0
-1 0.75 0
-0.75 0.75 0
-1 1 0
-0.75 1 0
-0.75 0.75 0
-0.5 0.75 0
-0.75 1 0
-0.5 1 0
-0.5 0.5 0
-0.25 0.5 0
-0.5 0.75 0
-0.25 0.75 0
-0.25 0.5 0
0 0.5 0
-0.25 0.75 0
0 0.75 0
-0.5 0.75 0
-0.25 0.75 0
-0.5 1 0
-0.25 1 0
-0.25 0.75 0
0 0.75 0
-0.25 1 0
0 1 0
0.25 -0.75 0
0.375 -0.75 0
0.25 -0.625 0
0.375 -0.625 0
0.5 -1 0
0.625 -1 0
0.5 -0.875 0
0.625 -0.875 0
0.625 -1 0
0.75 -1 0
0.625 -0.875 0
0.75 -0.875 0
0.5 -0.875 0
0.625 -0.875 0
0.5 -0.75 0
0.625 -0.75 0
0.625 -0.875 0
0.75 -0.875 0
0.625 -0.75 0
0.75 -0.75 0
0.75 -1 0
0.875 -1 0
0.75 -0.875 0
0.875 -0.875 0
0.875 -1 0
1 -1 0
0.875 -0.875 0
1 -0.875 0
0.75 -0.875 0
0.875 -0.875 0
0.75 -0.75 0
0.875 -0.75 0
0.875 -0.875 0
1 -0.875 0
0.875 -0.75 0
1 -0.75 0
0 -0.5 0
0.125 -0.5 0
0 -0.375 0
0.125 -0.375 0
0.125 -0.5 0
0.25 -0.5 0
0.125 -0.375 0
0.25 -0.375 0
0 -0.375 0
0.125 -0.375 0
0 -0.25 0
0.125 -0.25 0
0.125 -0.375 0
0.25 -0.375 0
0.125 -0.25 0
0.25 -0.25 0
0 -0.25 0
0.125 -0.25 0
0 -0.125 0
0.125 -0.125 0
0.125 -0.25 0
0.25 -0.25 0
0.125 -0.125 0
0.25 -0.125 0
0 -0.125 0
0.125 -0.125 0
0 0 0
0.125 0 0
0.125 -0.125 0
0.25 -0.125 0
0.125 0 0
0.25 0 0
0.25 -1 0
0.375 -1 0
0.25 -0.875 0
0.375 -0.875 0
0.375 -1 0
0.5 -1 0
0.375 -0.875 0
0.5 -0.875 0
0.25 -0.875 0
0.375 -0.875 0
0.25 -0.75 0
0.375 -0.75 0
0.375 -0.875 0
0.5 -0.875 0
0.375 -0.75 0
0.5 -0.75 0
0 -0.75 0
0.125 -0.75 0
0 -0.625 0
0.125 -0.625 0
0.125 -0.75 0
0.25 -0.75 0
0.125 -0.625 0
0.25 -0.625 0
0 -0.625 0
0.125 -0.625 0
0 -0.5 0
0.125 -0.5 0
0.125 -0.625 0
0.25 -0.625 0
0.125 -0.5 0
0.25 -0.5 0
0.8125 -0.4375 0
0.875 -0.4375 0
0.8125 -0.375 0
0.875 -0.375 0
0.8125 -0.375 0
0.875 -0.375 0
0.8125 -0.3125 0
0.875 -0.3125 0
0.875 -0.375 0
0.9375 -0.375 0
0.875 -0.3125 0
0.9375 -0.3125 0
0.875 -0.3125 0
0.9375 -0.3125 0
0.875 -0.25 0
0.9375 -0.25 0
0.5625 -0.1875 0
0.625 -0.1875 0
0.5625 -0.125 0
0.625 -0.125 0
0.625 -0.1875 0
0.6875 -0.1875 0
0.625 -0.125 0
0.6875 -0.125 0
0.625 -0.125 0
0.6875 -0.125 0
0.625 -0.0625 0
0.6875 -0.0625 0
0.6875 -0.125 0
0.75 -0.125 0
0.6875 -0.0625 0
0.75 -0.0625 0
0.8125 -0.1875 0
0.875 -0.1875 0
0.8125 -0.125 0
0.875 -0.125 0
0.875 -0.25 0
0.9375 -0.25 0
0.875 -0.1875 0
0.9375 -0.1875 0
0.875 -0.1875 0
0.9375 -0.1875 0
0.875 -0.125 0
0.9375 -0.125 0
0.75 -0.125 0
0.8125 -0.125 0
0.75 -0.0625 0
0.8125 -0.0625 0
0.8125 -0.125 0
0.875 -0.125 0
0.8125 -0.0625 0
0.875 -0.0625 0
0.5 -0.5 0
0.5625 -0.5 0
0.5 -0.4375 0
0.5625 -0.4375 0
0.9375 -0.0625 0
1 -0.0625 0
0.9375 0 0
1 0 0
0.625 -0.75 0
0.6875 -0.75 0
0.625 -0.6875 0
0.6875 -0.6875 0
0.6875 -0.75 0
0.75 -0.75 0
0.6875 -0.6875 0
0.75 -0.6875 0
0.625 -0.6875 0
0.6875 -0.6875 0
0.625 -0.625 0
0.6875 -0.625 0
0.6875 -0.6875 0
0.75 -0.6875 0
0.6875 -0.625 0
0.75 -0.625 0
0.6875 -0.625 0
0.75 -0.625 0
0.6875 -0.5625 0
0.75 -0.5625 0
0.625 -0.5625 0
0.6875 -0.5625 0
0.625 -0.5 0
0.6875 -0.5 0
0.6875 -0.5625 0
0.75 -0.5625 0
0.6875 -0.5 0
0.75 -0.5 0
0.75 -0.75 0
0.8125 -0.75 0
0.75 -0.6875 0
0.8125 -0.6875 0
0.8125 -0.75 0
0.875 -0.75 0
0.8125 -0.6875 0
0.875 -0.6875 0
0.75 -0.6875 0
0.8125 -0.6875 0
0.75 -0.625 0
0.8125 -0.625 0
0.8125 -0.6875 0
0.875 -0.6875 0
0.8125 -0.625 0
0.875 -0.625 0
0.75 -0.5625 0
0.8125 -0.5625 0
0.75 -0.5 0
0.8125 -0.5 0
0.25 -0.375 0
0.3125 -0.375 0
0.25 -0.3125 0
0.3125 -0.3125 0
0.3125 -0.375 0
0.375 -0.375 0
0.3125 -0.3125 0
0.375 -0.3125 0
0.25 -0.3125 0
0.3125 -0.3125 0
0.25 -0.25 0
0.3125 -0.25 0
0.3125 -0.3125 0
0.375 -0.3125 0
0.3125 -0.25 0
0.375 -0.25 0
0.4375 -0.375 0
0.5 -0.375 0
0.4375 -0.3125 0
0.5 -0.3125 0
0.375 -0.3125 0
0.4375 -0.3125 0
0.375 -0.25 0
0.4375 -0.25 0
0.4375 -0.3125 0
0.5 -0.3125 0
0.4375 -0.25 0
0.5 -0.25 0
0.25 -0.25 0
0.3125 -0.25 0
0.25 -0.1875 0
0.3125 -0.1875 0
0.3125 -0.25 0
0.375 -0.25 0
0.3125 -0.1875 0
0.375 -0.1875 0
0.25 -0.1875 0
0.3125 -0.1875 0
0.25 -0.125 0
0.3125 -0.125 0
0.3125 -0.1875 0
0.375 -0.1875 0
0.3125 -0.125 0
0.375 -0.125 0
0.375 -0.25 0
0.4375 -0.25 0
0.375 -0.1875 0
0.4375 -0.1875 0
0.4375 -0.25 0
0.5 -0.25 0
0.4375 -0.1875 0
0.5 -0.1875 0
0.5 -0.75 0
0.5625 -0.75 0
0.5 -0.6875 0
0.5625 -0.6875 0
0.5625 -0.75 0
0.625 -0.75 0
0.5625 -0.6875 0
0.625 -0.6875 0
0.5 -0.6875 0
0.5625 -0.6875 0
0.5 -0.625 0
0.5625 -0.625 0
0.5625 -0.6875 0
0.625 -0.6875 0
0.5625 -0.625 0
0.625 -0.625 0
0.5 -0.625 0
0.5625 -0.625 0
0.5 -0.5625 0
0.5625 -0.5625 0
0.5625 -0.625 0
0.625 -0.625 0
0.5625 -0.5625 0
0.625 -0.5625 0
0.5 -0.5625 0
0.5625 -0.5625 0
0.5 -0.5 0
0.5625 -0.5 0
0.5625 -0.5625 0
0.625 -0.5625 0
0.5625 -0.5 0
0.625 -0.5 0
0.875 -0.75 0
0.9375 -0.75 0
0.875 -0.6875 0
0.9375 -0.6875 0
0.9375 -0.75 0
1 -0.75 0
0.9375 -0.6875 0
1 -0.6875 0
0.875 -0.6875 0
0.9375 -0.6875 0
0.875 -0.625 0
0.9375 -0.625 0
0.9375 -0.6875 0
1 -0.6875 0
0.9375 -0.625 0
1 -0.625 0
0.875 -0.625 0
0.9375 -0.625 0
0.875 -0.5625 0
0.9375 -0.5625 0
0.9375 -0.625 0
1 -0.625 0
0.9375 -0.5625 0
1 -0.5625 0
0.875 -0.5625 0
0.9375 -0.5625 0
0.875 -0.5 0
0.9375 -0.5 0
0.9375 -0.5625 0
1 -0.5625 0
0.9375 -0.5 0
1 -0.5 0
0.25 -0.5 0
0.3125 -0.5 0
0.25 -0.4375 0
0.3125 -0.4375 0
0.3125 -0.5 0
0.375 -0.5 0
0.3125 -0.4375 0
0.375 -0.4375 0
0.25 -0.4375 0
0.3125 -0.4375 0
0.25 -0.375 0
0.3125 -0.375 0
0.3125 -0.4375 0
0.375 -0.4375 0
0.3125 -0.375 0
0.375 -0.375 0
0.375 -0.5 0
0.4375 -0.5 0
0.375 -0.4375 0
0.4375 -0.4375 0
0.4375 -0.5 0
0.5 -0.5 0
0.4375 -0.4375 0
0.5 -0.4375 0
0.375 -0.4375 0
0.4375 -0.4375 0
0.375 -0.375 0
0.4375 -0.375 0
0.4375 -0.4375 0
0.5 -0.4375 0
0.4375 -0.375 0
0.5 -0.375 0
0.25 -0.125 0
0.3125 -0.125 0
0.25 -0.0625 0
0.3125 -0.0625 0
0.3125 -0.125 0
0.375 -0.125 0
0.3125 -0.0625 0
0.375 -0.0625 0
0.25 -0.0625 0
0.3125 -0.0625 0
0.25 0 0
0.3125 0 0
0.3125 -0.0625 0
0.375 -0.0625 0
0.3125 0 0
0.375 0 0
0.375 -0.125 0
0.4375 -0.125 0
0.375 -0.0625 0
0.4375 -0.0625 0
0.4375 -0.125 0
0.5 -0.125 0
0.4375 -0.0625 0
0.5 -0.0625 0
0.375 -0.0625 0
0.4375 -0.0625 0
0.375 0 0
0.4375 0 0
0.4375 -0.0625 0
0.5 -0.0625 0
0.4375 0 0
0.5 0 0
0.375 -0.75 0
0.4375 -0.75 0
0.375 -0.6875 0
0.4375 -0.6875 0
0.4375 -0.75 0
0.5 -0.75 0
0.4375 -0.6875 0
0.5 -0.6875 0
0.375 -0.6875 0
0.4375 -0.6875 0
0.375 -0.625 0
0.4375 -0.625 0
0.4375 -0.6875 0
0.5 -0.6875 0
0.4375 -0.625 0
0.5 -0.625 0
0.25 -0.625 0
0.3125 -0.625 0
0.25 -0.5625 0
0.3125 -0.5625 0
0.3125 -0.625 0
0.375 -0.625 0
0.3125 -0.5625 0
0.375 -0.5625 0
0.25 -0.5625 0
0.3125 -0.5625 0
0.25 -0.5 0
0.3125 -0.5 0
0.3125 -0.5625 0
0.375 -0.5625 0
0.3125 -0.5 0
0.375 -0.5 0
0.375 -0.625 0
0.4375 -0.625 0
0.375 -0.5625 0
0.4375 -0.5625 0
0.4375 -0.625 0
0.5 -0.625 0
0.4375 -0.5625 0
0.5 -0.5625 0
0.375 -0.5625 0
0.4375 -0.5625 0
0.375 -0.5 0
0.4375 -0.5 0
0.4375 -0.5625 0
0.5 -0.5625 0
0.4375 -0.5 0
0.5 -0.5 0
0.75 -0.5 0
0.78125 -0.5 0
0.75 -0.46875 0
0.78125 -0.46875 0
0.78125 -0.5 0
0.8125 -0.5 0
0.78125 -0.46875 0
0.8125 -0.46875 0
0.75 -0.46875 0
0.78125 -0.46875 0
0.75 -0.4375 0
0.78125 -0.4375 0
0.78125 -0.46875 0
0.8125 -0.46875 0
0.78125 -0.4375 0
0.8125 -0.4375 0
0.8125 -0.5 0
0.84375 -0.5 0
0.8125 -0.46875 0
0.84375 -0.46875 0
0.84375 -0.5 0
0.875 -0.5 0
0.84375 -0.46875 0
0.875 -0.46875 0
0.8125 -0.46875 0
0.84375 -0.46875 0
0.8125 -0.4375 0
0.84375 -0.4375 0
0.84375 -0.46875 0
0.875 -0.46875 0
0.84375 -0.4375 0
0.875 -0.4375 0
0.75 -0.4375 0
0.78125 -0.4375 0
0.75 -0.40625 0
0.78125 -0.40625 0
0.78125 -0.4375 0
0.8125 -0.4375 0
0.78125 -0.40625 0
0.8125 -0.40625 0
0.75 -0.40625 0
0.78125 -0.40625 0
0.75 -0.375 0
0.78125 -0.375 0
0.78125 -0.40625 0
0.8125 -0.40625 0
0.78125 -0.375 0
0.8125 -0.375 0
0.75 -0.375 0
0.78125 -0.375 0
0.75 -0.34375 0
0.78125 -0.34375 0
0.78125 -0.375 0
0.8125 -0.375 0
0.78125 -0.34375 0
0.8125 -0.34375 0
0.75 -0.34375 0
0.78125 -0.34375 0
0.75 -0.3125 0
0.78125 -0.3125 0
0.78125 -0.34375 0
0.8125 -0.34375 0
0.78125 -0.3125 0
0.8125 -0.3125 0
0.75 -0.3125 0
0.78125 -0.3125 0
0.75 -0.28125 0
0.78125 -0.28125 0
0.78125 -0.3125 0
0.8125 -0.3125 0
0.78125 -0.28125 0
0.8125 -0.28125 0
0.75 -0.28125 0
0.78125 -0.28125 0
0.75 -0.25 0
0.78125 -0.25 0
0.78125 -0.28125 0
0.8125 -0.28125 0
0.78125 -0.25 0
0.8125 -0.25 0
0.8125 -0.3125 0
0.84375 -0.3125 0
0.8125 -0.28125 0
0.84375 -0.28125 0
0.84375 -0.3125 0
0.875 -0.3125 0
0.84375 -0.28125 0
0.875 -0.28125 0
0.8125 -0.28125 0
0.84375 -0.28125 0
0.8125 -0.25 0
0.84375 -0.25 0
0.84375 -0.28125 0
0.875 -0.28125 0
0.84375 -0.25 0
0.875 -0.25 0
0.9375 -0.375 0
0.96875 -0.375 0
0.9375 -0.34375 0
0.96875 -0.34375 0
0.96875 -0.375 0
1 -0.375 0
0.96875 -0.34375 0
1 -0.34375 0
0.9375 -0.34375 0
0.96875 -0.34375 0
0.9375 -0.3125 0
0.96875 -0.3125 0
0.96875 -0.34375 0
1 -0.34375 0
0.96875 -0.3125 0
1 -0.3125 0
0.9375 -0.3125 0
0.96875 -0.3125 0
[...]
POINT_DATA 1464
SCALARS U double 1
LOOKUP_TABLE default
0 0 0 -1.20937e-08 0 0 -1.20937e-08 1.42906e-06 0 -1.20937e-08 0 -1.29018e-07 -1.20937e-08 1.42906e-06 -1.29018e-07 4.4941e-06 0 0 1.42906e-06 -7.88431e-06 0 0 -7.88431e-06 -1.94874e-06 1.42906e-06 -7.88431e-06 4.4941e-06 -2.60712e-05 -7.88431e-06 -1.94874e-06 -2.60712e-05 3.26945e-05 0 -1.29018e-07 0 4.57533e-07 -1.29018e-07 4.4941e-06 4.57533e-07 2.04051e-06 0 4.57533e-07 0 3.24346e-07 4.57533e-07 2.04051e-06 3.24346e-07 -1.18246e-07 4.4941e-06 -2.60712e-05 2.04051e-06 -2.02614e-05 -2.60712e-05 3.26945e-05 -2.02614e-05 5.0609e-05 2.04051e-06 -2.02614e-05 -1.18246e-07 -2.47529e-06 -2.02614e-05 5.0609e-05 -2.47529e-06 0 0 0 -1.94874e-06 0.000281751 0 3.24346e-07 0 -6.04674e-09 3.24346e-07 -1.18246e-07 -6.04674e-09 1.03574e-07 0 -6.04674e-09 0 -4.90747e-09 -6.04674e-09 1.03574e-07 -4.90747e-09 -1.31537e-09 -1.18246e-07 -2.47529e-06 1.03574e-07 -8.19209e-09 -2.47529e-06 0 -8.19209e-09 0 1.03574e-07 -8.19209e-09 -1.31537e-09 9.29354e-08 -8.19209e-09 0 9.29354e-08 0 0 -4.90747e-09 0 1.0436e-09 -4.90747e-09 -1.31537e-09 1.0436e-09 -2.56225e-09 0 1.0436e-09 0 0 1.0436e-09 -2.56225e-09 0 0 -1.31537e-09 9.29354e-08 -2.56225e-09 -2.29382e-08 9.29354e-08 0 -2.29382e-08 0 -2.56225e-09 -2.29382e-08 0 0 -2.29382e-08 0 0 0 0.000281751 0.00069498 0.000686061 0.00171672 0 0 0.000373863 0.000444887 0 0 0.000444887 0.00041121 0.000373863 0.000444887 0.00121312 0.00160314 0.000444887 0.00041121 0.00160314 0.00161717 0 0 0.00041121 0.000258748 0 0 0.000258748 0 0.00041121 0.000258748 0.00161717 0.00100853 0.000258748 0 0.00100853 0 3.26945e-05 0.000344079 4.16518e-05 0.00042062 0.000344079 0.00119778 0.00042062 0.00158773 4.16518e-05 0.00042062 5.0609e-05 0.000396875 0.00042062 0.00158773 0.000396875 0.00160496 5.0609e-05 0.000396875 2.53045e-05 0.000253054 0.000396875 0.00160496 0.000253054 0.00100163 2.53045e-05 0.000253054 0 0 0.000253054 0.00100163 0 0 0 0 0.000140875 0.000242133 0 0 0.000242133 0.000373863 0.000140875 0.000242133 0.000281751 0.00069498 0.000242133 0.000373863 0.00069498 0.00121312 -1.94874e-06 0.000139901 1.53729e-05 0.000220112 0.000139901 0.000281751 0.000220112 0.000686061 1.53729e-05 0.000220112 3.26945e-05 0.000344079 0.000220112 0.000686061 0.000344079 0.00119778 0.0148984 0.0120394 0.0172073 0.013848 0.0172073 0.013848 0.0182521 0.0146812 0.013848 0.0085215 0.0146812 0.00892037 0.0146812 0.00892037 0.0145507 0.00887717 0.0148983 0.0172077 0.0120393 0.0138483 0.0172077 0.0182524 0.0138483 0.0146814 0.0138483 0.0146814 0.00852166 0.00892048 0.0146814 0.0145508 0.00892048 0.00887722 0.0165938 0.0134344 0.0134344 0.0110328 0.0145507 0.00887717 0.0134344 0.0082501 0.0134344 0.0082501 0.0110328 0.00699174 0.0145508 0.0134344 0.00887722 0.00825011 0.0134344 0.0110328 0.00825011 0.00699174 0.00770677 0.0100528 0.010053 0.0137629 0.00463132 0 0 0 0.00160314 0.00161015 0.00284192 0.00289974 0.00161015 0.00161717 0.00289974 0.00281431 0.00284192 0.00289974 0.00456778 0.00491747 0.00289974 0.00281431 0.00491747 0.0047363 0.00491747 0.0047363 0.00782346 0.00770197 0.00753519 0.00782346 0.0115938 0.0122975 0.00782346 0.00770197 0.0122975 0.012088 0.00161717 0.00131285 0.00281431 0.00243817 0.00131285 0.00100853 0.00243817 0.00186022 0.00281431 0.00243817 0.0047363 0.0042083 0.00243817 0.00186022 0.0042083 0.00304707 0.00770197 0.00679208 0.012088 0.0109539 0.00158773 0.00283433 0.00159635 0.00289282 0.00283433 0.00456522 0.00289282 0.00491555 0.00159635 0.00289282 0.00160496 0.00280294 0.00289282 0.00491555 0.00280294 0.00474156 0.00753471 0.0115944 0.00782422 0.0122983 0.00491555 0.00782422 0.00474156 0.00770811 0.00782422 0.0122983 0.00770811 0.0120833 0.00160496 0.00280294 0.00130329 0.00242215 0.00280294 0.00474156 0.00242215 0.00419974 0.00130329 0.00242215 0.00100163 0.00185302 0.00242215 0.00419974 0.00185302 0.00304964 0.00474156 0.00770811 0.00419974 0.00678443 0.00770811 0.0120833 0.00678443 0.010943 0.00121312 0.00140813 0.00208447 0.00251147 0.00140813 0.00160314 0.00251147 0.00284192 0.00208447 0.00251147 0.00330887 0.00404548 0.00251147 0.00284192 0.00404548 0.00456778 0.00330887 0.00404548 0.00518319 0.00653051 0.00404548 0.00456778 0.00653051 0.00753519 0.00518319 0.00653051 0.00770677 0.0100528 0.00653051 0.00753519 0.0100528 0.0115938 0.00100853 0.000504264 0.00186022 0.000980723 0.000504264 0 0.000980723 0 0.00186022 0.000980723 0.00304707 0.00164551 0.000980723 0 0.00164551 0 0.00304707 0.00164551 0.00533219 0.00290997 0.00164551 0 0.00290997 0 0.00533219 0.00290997 0.00870525 0.00506398 0.00290997 0 0.00506398 0 0.00119778 0.00207768 0.00139276 0.00250403 0.00207768 0.00330636 0.00250403 0.00404273 0.00139276 0.00250403 0.00158773 0.00283433 0.00250403 0.00404273 0.00283433 0.00456522 0.00330636 0.00518241 0.00404273 0.00652981 0.00518241 0.00770677 0.00652981 0.010053 0.00404273 0.00652981 0.00456522 0.00753471 0.00652981 0.010053 0.00753471 0.0115944 0.00100163 0.00185302 0.000500813 0.000979276 0.00185302 0.00304964 0.000979276 0.00164657 0.000500813 0.000979276 0 0 0.000979276 0.00164657 0 0 0.00304964 0.00533472 0.00164657 0.0029105 0.00533472 0.0087028 0.0029105 0.0050643 0.00164657 0.0029105 0 0 0.0029105 0.0050643 0 0 0.00069498 0.000954052 0.00120585 0.00160853 0.000954052 0.00121312 0.00160853 0.00208447 0.00120585 0.00160853 0.00171672 0.00249766 0.00160853 0.00208447 0.00249766 0.00330887 0.000686061 0.00120139 0.00094192 0.00160308 0.00120139 0.00171672 0.00160308 0.00249587 0.00094192 0.00160308 0.00119778 0.00207768 0.00160308 0.00249587 0.00207768 0.00330636 0.00171672 0.00249766 0.00249587 0.00374321 0.00249766 0.00330887 0.00374321 0.00518319 0.00249587 0.00374321 0.00330636 0.00518241 0.00374321 0.00518319 0.00518241 0.00770677 0.012088 0.0115209 0.0143078 0.0137168 0.0115209 0.0109539 0.0137168 0.0130376 0.0143078 0.0137168 0.0163522 0.0156903 0.0137168 0.0130376 0.0156903 0.0148984 0.0109539 0.00987442 0.0130376 0.0118016 0.00987442 0.00870525 0.0118016 0.0105137 0.0130376 0.0118016 0.0148984 0.0134689 0.0118016 0.0105137 0.0134689 0.0120394 0.0163522 0.0156903 0.0176605 0.0169482 0.0156903 0.0148984 0.0169482 0.0160528 0.0176605 0.0169482 0.0188554 0.0181053 0.0169482 0.0160528 0.0181053 0.0172073 0.0188554 0.0181053 0.0194677 0.0186942 0.0181053 0.0172073 0.0186942 0.0177297 0.0194677 0.0186942 0.0199723 0.0191809 0.0186942 0.0177297 0.0191809 0.0182521 0.0199723 0.0191809 0.0199027 0.0191218 0.0191809 0.0182521 0.0191218 0.0182066 0.0199027 0.0191218 0.0197254 0.0189591 0.0191218 0.0182066 0.0189591 0.0180747 0.0182521 0.0164667 0.0182066 0.0165217 0.0164667 0.0146812 0.0165217 0.014616 0.0182066 0.0165217 0.0180747 0.0164175 0.0165217 0.014616 0.0164175 0.0145507 0.0085215 0.00449943 0.00872093 0.00462546 0.00449943 0 0.00462546 0 0.00872093 0.00462546 0.00892037 0.00472909 0.00462546 0 0.00472909 0 0.00892037 0.00472909 0.00889877 0.00473083 0.00472909 0 0.00473083 0 0.00889877 0.00473083 0.00887717 0.00470658 0.00473083 0 0.00470658 0 0.0120833 0.014306 0.0115131 0.0137148 0.014306 0.0163521 0.0137148 0.0156901 0.0115131 0.0137148 0.010943 0.013036 0.0137148 0.0156901 0.013036 0.0148983 0.0163521 0.0176608 0.0156901 0.0169485 0.0176608 0.0188558 0.0169485 0.0181056 0.0156901 0.0169485 0.0148983 0.016053 0.0169485 0.0181056 0.016053 0.0172077 0.010943 0.013036 0.00986972 0.0117998 0.013036 0.0148983 0.0117998 0.0134688 0.00986972 0.0117998 0.0087028 0.0105127 0.0117998 0.0134688 0.0105127 0.0120393 0.0188558 0.019468 0.0181056 0.0186945 0.019468 0.0199725 0.0186945 0.0191811 0.0181056 0.0186945 0.0172077 0.01773 0.0186945 0.0191811 0.01773 0.0182524 0.0199725 0.0199028 0.0191811 0.0191219 0.0199028 0.0197254 0.0191219 0.0189591 0.0191811 0.0191219 0.0182524 0.0182068 0.0191219 0.0189591 0.0182068 0.0180748 0.0182524 0.0182068 0.0164669 0.0165219 0.0182068 0.0180748 0.0165219 0.0164176 0.0164669 0.0165219 0.0146814 0.0146161 0.0165219 0.0164176 0.0146161 0.0145508 0.00852166 0.00872107 0.00449951 0.00462553 0.00872107 0.00892048 0.00462553 0.00472915 0.00449951 0.00462553 0 0 0.00462553 0.00472915 0 0 0.00892048 0.00889885 0.00472915 0.00473087 0.00889885 0.00887722 0.00473087 0.0047066 0.00472915 0.00473087 0 0 0.00473087 0.0047066 0 0 0.0197254 0.0189591 0.0189591 0.0182314 0.0189591 0.0180747 0.0182314 0.0173857 0.0189591 0.0182314 0.0180748 0.0173857 0.0182314 0.0173857 0.0173857 0.0165938 0.0180747 0.0164175 0.0173857 0.0158033 0.0164175 0.0145507 0.0158033 0.0139926 0.0173857 0.0158033 0.0165938 0.0150141 0.0158033 0.0139926 0.0150141 0.0134344 0.0180748 0.0173857 0.0164176 0.0158033 0.0173857 0.0165938 0.0158033 0.0150141 0.0164176 0.0158033 0.0145508 0.0139926 0.0158033 0.0150141 0.0139926 0.0134344 0.00887717 0.00470658 0.00856364 0.00456113 0.00470658 0 0.00456113 0 0.00856364 0.00456113 0.0082501 0.00438563 0.00456113 0 0.00438563 0 0.0082501 0.00438563 0.00762092 0.00406811 0.00438563 0 0.00406811 0 0.00762092 0.00406811 0.00699174 0.00372322 0.00406811 0 0.00372322 0 0.00887722 0.00856367 0.0047066 0.00456115 0.00856367 0.00825011 0.00456115 0.00438564 0.0047066 0.00456115 0 0 0.00456115 0.00438564 0 0 0.00825011 0.00762093 0.00438564 0.00406811 0.00762093 0.00699174 0.00406811 0.00372323 0.00438564 0.00406811 0 0 0.00406811 0.00372323 0 0 0.0100528 0.0108233 0.0119078 0.0129376 0.0108233 0.0115938 0.0129376 0.0137733 0.0119078 0.0129376 0.0137629 0.014742 0.0129376 0.0137733 0.014742 0.0156836 0.010053 0.0119079 0.0108237 0.0129379 0.0119079 0.0137629 0.0129379 0.0147421 0.0108237 0.0129379 0.0115944 0.0137738 0.0129379 0.0147421 0.0137738 0.0156839 0.0137629 0.014742 0.0147421 0.0158731 0.014742 0.0156836 0.0158731 0.0169159 0.0147421 0.0158731 0.0156839 0.0169161 0.0158731 0.0169159 0.0169161 0.0180513 0.0115938 0.0119457 0.0137733 0.014175 0.0119457 0.0122975 0.014175 0.0145282 0.0137733 0.014175 0.0156836 0.0161608 0.014175 0.0145282 0.0161608 0.0165575 0.0122975 0.0121927 0.0145282 0.0144574 0.0121927 0.012088 0.0144574 0.0143078 0.0145282 0.0144574 0.0165575 0.0164965 0.0144574 0.0143078 0.0164965 0.0163522 0.0156836 0.0161608 0.0169159 0.0174446 0.0161608 0.0165575 0.0174446 0.0178824 0.0169159 0.0174446 0.0180513 0.0186195 0.0174446 0.0178824 0.0186195 0.0190928 0.0165575 0.0164965 0.0178824 0.0178168 0.0164965 0.0163522 0.0178168 0.0176605 0.0178824 0.0178168 0.0190928 0.0190239 0.0178168 0.0176605 0.0190239 0.0188554 0.0115944 0.0137738 0.0119464 0.0141755 0.0137738 0.0156839 0.0141755 0.0161612 0.0119464 0.0141755 0.0122983 0.0145284 0.0141755 0.0161612 0.0145284 0.0165578 0.0156839 0.0169161 0.0161612 0.0174449 0.0169161 0.0180513 0.0174449 0.0186196 0.0161612 0.0174449 0.0165578 0.0178827 0.0174449 0.0186196 0.0178827 0.019093 0.0122983 0.0145284 0.0121908 0.0144566 0.0145284 0.0165578 0.0144566 0.0164965 0.0121908 0.0144566 0.0120833 0.014306 0.0144566 0.0164965 0.014306 0.0163521 0.0165578 0.0178827 0.0164965 0.0178171 0.0178827 0.019093 0.0178171 0.0190242 0.0164965 0.0178171 0.0163521 0.0176608 0.0178171 0.0190242 0.0176608 0.0188558 0.0180513 0.0186195 0.0186196 0.0192106 0.0186195 0.0190928 0.0192106 0.0197003 0.0186196 0.0192106 0.019093 0.0197004 0.0192106 0.0197003 0.0197004 0.0202023 0.0190928 0.0190239 0.0197003 0.0196354 0.0190239 0.0188554 0.0196354 0.0194677 0.0197003 0.0196354 0.0202023 0.0201403 0.0196354 0.0194677 0.0201403 0.0199723 0.019093 0.0197004 0.0190242 0.0196356 0.0197004 0.0202023 0.0196356 0.0201403 0.0190242 0.0196356 0.0188558 0.019468 0.0196356 0.0201403 0.019468 0.0199725 0.0202023 0.0201403 0.0201403 0.0200757 0.0201403 0.0199723 0.0200757 0.0199027 0.0201403 0.0200757 0.0199725 0.0199028 0.0200757 0.0199027 0.0199028 0.0197254 0.00870525 0.00688461 0.0105137 0.00852056 0.00688461 0.00506398 0.00852056 0.00635604 0.0105137 0.00852056 0.0120394 0.0098431 0.00852056 0.00635604 0.0098431 0.00747415 0.00506398 0.00253199 0.00635604 0.00340161 0.00253199 0 0.00340161 0 0.00635604 0.00340161 0.00747415 0.0039587 0.00340161 0 0.0039587 0 0.0120394 0.0098431 0.0129437 0.0105515 0.0098431 0.00747415 0.0105515 0.00798499 0.0129437 0.0105515 0.013848 0.0111848 0.0105515 0.00798499 0.0111848 0.0085215 0.00747415 0.0039587 0.00798499 0.0042156 0.0039587 0 0.0042156 0 0.00798499 0.0042156 0.0085215 0.00449943 0.0042156 0 0.00449943 0 0.0087028 0.0105127 0.00688355 0.00852016 0.0105127 0.0120393 0.00852016 0.00984308 0.00688355 0.00852016 0.0050643 0.006356 0.00852016 0.00984308 0.006356 0.00747423 0.0120393 0.0129438 0.00984308 0.0105517 0.0129438 0.0138483 0.0105517 0.011185 0.00984308 0.0105517 0.00747423 0.00798515 0.0105517 0.011185 0.00798515 0.00852166 0.0050643 0.006356 0.00253215 0.00340169 0.006356 0.00747423 0.00340169 0.00395876 0.00253215 0.00340169 0 0 0.00340169 0.00395876 0 0 0.00747423 0.00798515 0.00395876 0.00421568 0.00798515 0.00852166 0.00421568 0.00449951 0.00395876 0.00421568 0 0 0.00421568 0.00449951 0 0 0.0110328 0.00901228 0.00901228 0.00750223 0.00901228 0.00699174 0.00750223 0.00584562 0.00901228 0.00750223 0.00699174 0.00584562 0.00750223 0.00584562 0.00584562 0.00463132 0.00699174 0.00372322 0.00584562 0.00310048 0.00372322 0 0.00310048 0 0.00584562 0.00310048 0.00463132 0.00231566 0.00310048 0 0.00231566 0 0.00699174 0.00584562 0.00372323 0.00310048 0.00584562 0.00463132 0.00310048 0.00231566 0.00372323 0.00310048 0 0 0.00310048 0.00231566 0 0 0.00456778 0.00474263 0.00605149 0.00617649 0.00474263 0.00491747 0.00617649 0.00637046 0.00605149 0.00617649 0.00753519 0.00767933 0.00617649 0.00637046 0.00767933 0.00782346 0.0047363 0.0044723 0.00621914 0.00582892 0.0044723 0.0042083 0.00582892 0.00543241 0.00621914 0.00582892 0.00770197 0.00724703 0.00582892 0.00543241 0.00724703 0.00679208 0.0042083 0.00362768 0.00543241 0.00481679 0.00362768 0.00304707 0.00481679 0.00418963 0.00543241 0.00481679 0.00679208 0.00611778 0.00481679 0.00418963 0.00611778 0.00533219 0.00679208 0.00611778 0.00887299 0.00788622 0.00611778 0.00533219 0.00788622 0.00701872 0.00887299 0.00788622 0.0109539 0.00987442 0.00788622 0.00701872 0.00987442 0.00870525 0.00456522 0.00604997 0.00474038 0.00617527 0.00604997 0.00753471 0.00617527 0.00767947 0.00474038 0.00617527 0.00491555 0.00636988 0.00617527 0.00767947 0.00636988 0.00782422 0.00419974 0.00549209 0.00362469 0.00483308 0.00549209 0.00678443 0.00483308 0.00612379 0.00362469 0.00483308 0.00304964 0.00419218 0.00483308 0.00612379 0.00419218 0.00533472 0.00678443 0.00886372 0.00612379 0.00787785 0.00886372 0.010943 0.00787785 0.00986972 0.00612379 0.00787785 0.00533472 0.00701876 0.00787785 0.00986972 0.00701876 0.0087028 
