# vtk DataFile Version 3.0
#This file was generated by the deal.II library on 2021/4/23 at 0:45:39
ASCII
DATASET UNSTRUCTURED_GRID

FIELD FieldData 2
CYCLE 1 1 int
33
TIME 1 1 double
0.066
POINTS 6144 double
-1 -1 0
-0.75 -1 0
-1 -0.75 0
-0.75 -0.75 0
-0.75 -1 0
-0.5 -1 0
-0.75 -0.75 0
-0.5 -0.75 0
-1 -0.75 0
-0.75 -0.75 0
-1 -0.5 0
-0.75 -0.5 0
-0.75 -0.75 0
-0.5 -0.75 0
-0.75 -0.5 0
-0.5 -0.5 0
-0.5 -1 0
-0.25 -1 0
-0.5 -0.75 0
-0.25 -0.75 0
-1 -0.5 0
-0.75 -0.5 0
-1 -0.25 0
-0.75 -0.25 0
-0.75 -0.5 0
-0.5 -0.5 0
-0.75 -0.25 0
-0.5 -0.25 0
-1 -0.25 0
-0.75 -0.25 0
-1 0 0
-0.75 0 0
-0.75 -0.25 0
-0.5 -0.25 0
-0.75 0 0
-0.5 0 0
-1 0 0
-0.75 0 0
-1 0.25 0
-0.75 0.25 0
-0.75 0 0
-0.5 0 0
-0.75 0.25 0
-0.5 0.25 0
-1 0.25 0
-0.75 0.25 0
-1 0.5 0
-0.75 0.5 0
-0.75 0.25 0
-0.5 0.25 0
-0.75 0.5 0
-0.5 0.5 0
-0.5 0 0
-0.25 0 0
-0.5 0.25 0
-0.25 0.25 0
-0.5 0.25 0
-0.25 0.25 0
-0.5 0.5 0
-0.25 0.5 0
-0.25 0.25 0
0 0.25 0
-0.25 0.5 0
0 0.5 0
-1 0.5 0
-0.75 0.5 0
-1 0.75 0
-0.75 0.75 0
-0.75 0.5 0
-0.5 0.5 0
-0.75 0.75 0
-0.5 0.75 0
-1 0.75 0
-0.75 0.75 0
-1 1 0
-0.75 1 0
-0.75 0.75 0
-0.5 0.75 0
-0.75 1 0
-0.5 1 0
-0.5 0.5 0
-0.25 0.5 0
-0.5 0.75 0
-0.25 0.75 0
-0.25 0.5 0
0 0.5 0
-0.25 0.75 0
0 0.75 0
-0.5 0.75 0
-0.25 0.75 0
-0.5 1 0
-0.25 1 0
-0.25 0.75 0
0 0.75 0
-0.25 1 0
0 1 0
-0.25 -0.125 0
-0.125 -0.125 0
-0.25 0 0
-0.125 0 0
-0.25 -1 0
-0.125 -1 0
-0.25 -0.875 0
-0.125 -0.875 0
-0.125 -1 0
0 -1 0
-0.125 -0.875 0
0 -0.875 0
-0.25 -0.875 0
-0.125 -0.875 0
-0.25 -0.75 0
-0.125 -0.75 0
0 -1 0
0.125 -1 0
0 -0.875 0
0.125 -0.875 0
-0.5 -0.75 0
-0.375 -0.75 0
-0.5 -0.625 0
-0.375 -0.625 0
-0.375 -0.75 0
-0.25 -0.75 0
-0.375 -0.625 0
-0.25 -0.625 0
-0.5 -0.625 0
-0.375 -0.625 0
-0.5 -0.5 0
-0.375 -0.5 0
-0.375 -0.625 0
-0.25 -0.625 0
-0.375 -0.5 0
-0.25 -0.5 0
-0.5 -0.5 0
-0.375 -0.5 0
-0.5 -0.375 0
-0.375 -0.375 0
-0.375 -0.5 0
-0.25 -0.5 0
-0.375 -0.375 0
-0.25 -0.375 0
-0.5 -0.375 0
-0.375 -0.375 0
-0.5 -0.25 0
-0.375 -0.25 0
-0.375 -0.375 0
-0.25 -0.375 0
-0.375 -0.25 0
-0.25 -0.25 0
-0.5 -0.25 0
-0.375 -0.25 0
-0.5 -0.125 0
-0.375 -0.125 0
-0.375 -0.25 0
-0.25 -0.25 0
-0.375 -0.125 0
-0.25 -0.125 0
-0.5 -0.125 0
-0.375 -0.125 0
-0.5 0 0
-0.375 0 0
-0.375 -0.125 0
-0.25 -0.125 0
-0.375 0 0
-0.25 0 0
-0.25 0 0
-0.125 0 0
-0.25 0.125 0
-0.125 0.125 0
-0.125 0 0
0 0 0
-0.125 0.125 0
0 0.125 0
-0.25 0.125 0
-0.125 0.125 0
-0.25 0.25 0
-0.125 0.25 0
-0.125 0.125 0
0 0.125 0
-0.125 0.25 0
0 0.25 0
0.9375 -0.3125 0
1 -0.3125 0
0.9375 -0.25 0
1 -0.25 0
0.6875 -0.0625 0
0.75 -0.0625 0
0.6875 0 0
0.75 0 0
0.9375 -0.25 0
1 -0.25 0
0.9375 -0.1875 0
1 -0.1875 0
0.9375 -0.1875 0
1 -0.1875 0
0.9375 -0.125 0
1 -0.125 0
0.75 -0.0625 0
0.8125 -0.0625 0
0.75 0 0
0.8125 0 0
0.8125 -0.0625 0
0.875 -0.0625 0
0.8125 0 0
0.875 0 0
0.9375 -0.0625 0
1 -0.0625 0
0.9375 0 0
1 0 0
0.5 -0.75 0
0.5625 -0.75 0
0.5 -0.6875 0
0.5625 -0.6875 0
0.875 -0.75 0
0.9375 -0.75 0
0.875 -0.6875 0
0.9375 -0.6875 0
0.9375 -0.75 0
1 -0.75 0
0.9375 -0.6875 0
1 -0.6875 0
0.9375 -0.5625 0
1 -0.5625 0
0.9375 -0.5 0
1 -0.5 0
0.25 -0.5 0
0.3125 -0.5 0
0.25 -0.4375 0
0.3125 -0.4375 0
0.25 -0.125 0
0.3125 -0.125 0
0.25 -0.0625 0
0.3125 -0.0625 0
0.25 -0.0625 0
0.3125 -0.0625 0
0.25 0 0
0.3125 0 0
0.4375 -0.0625 0
0.5 -0.0625 0
0.4375 0 0
0.5 0 0
0.375 -0.75 0
0.4375 -0.75 0
0.375 -0.6875 0
0.4375 -0.6875 0
0.4375 -0.75 0
0.5 -0.75 0
0.4375 -0.6875 0
0.5 -0.6875 0
0.375 -0.6875 0
0.4375 -0.6875 0
0.375 -0.625 0
0.4375 -0.625 0
0.4375 -0.6875 0
0.5 -0.6875 0
0.4375 -0.625 0
0.5 -0.625 0
0.25 -0.625 0
0.3125 -0.625 0
0.25 -0.5625 0
0.3125 -0.5625 0
0.3125 -0.625 0
0.375 -0.625 0
0.3125 -0.5625 0
0.375 -0.5625 0
0.25 -0.5625 0
0.3125 -0.5625 0
0.25 -0.5 0
0.3125 -0.5 0
0.3125 -0.5625 0
0.375 -0.5625 0
0.3125 -0.5 0
0.375 -0.5 0
0.375 -0.625 0
0.4375 -0.625 0
0.375 -0.5625 0
0.4375 -0.5625 0
0.625 -1 0
0.6875 -1 0
0.625 -0.9375 0
0.6875 -0.9375 0
0.6875 -1 0
0.75 -1 0
0.6875 -0.9375 0
0.75 -0.9375 0
0.6875 -0.9375 0
0.75 -0.9375 0
0.6875 -0.875 0
0.75 -0.875 0
0.5 -0.875 0
0.5625 -0.875 0
0.5 -0.8125 0
0.5625 -0.8125 0
0.5625 -0.875 0
0.625 -0.875 0
0.5625 -0.8125 0
0.625 -0.8125 0
0.5 -0.8125 0
0.5625 -0.8125 0
0.5 -0.75 0
0.5625 -0.75 0
0.625 -0.875 0
0.6875 -0.875 0
0.625 -0.8125 0
0.6875 -0.8125 0
0.6875 -0.875 0
0.75 -0.875 0
0.6875 -0.8125 0
0.75 -0.8125 0
0.75 -0.875 0
0.8125 -0.875 0
0.75 -0.8125 0
0.8125 -0.8125 0
0.8125 -0.875 0
0.875 -0.875 0
0.8125 -0.8125 0
0.875 -0.8125 0
0.8125 -0.8125 0
0.875 -0.8125 0
0.8125 -0.75 0
0.875 -0.75 0
0 -0.5 0
0.0625 -0.5 0
0 -0.4375 0
0.0625 -0.4375 0
0.0625 -0.5 0
0.125 -0.5 0
0.0625 -0.4375 0
0.125 -0.4375 0
0 -0.4375 0
0.0625 -0.4375 0
0 -0.375 0
0.0625 -0.375 0
0.0625 -0.4375 0
0.125 -0.4375 0
0.0625 -0.375 0
0.125 -0.375 0
0.125 -0.5 0
0.1875 -0.5 0
0.125 -0.4375 0
0.1875 -0.4375 0
0.1875 -0.5 0
0.25 -0.5 0
0.1875 -0.4375 0
0.25 -0.4375 0
0.125 -0.4375 0
0.1875 -0.4375 0
0.125 -0.375 0
0.1875 -0.375 0
0 -0.375 0
0.0625 -0.375 0
0 -0.3125 0
0.0625 -0.3125 0
0.0625 -0.375 0
0.125 -0.375 0
0.0625 -0.3125 0
0.125 -0.3125 0
0 -0.3125 0
0.0625 -0.3125 0
0 -0.25 0
0.0625 -0.25 0
0.0625 -0.3125 0
0.125 -0.3125 0
0.0625 -0.25 0
0.125 -0.25 0
0.125 -0.375 0
0.1875 -0.375 0
0.125 -0.3125 0
0.1875 -0.3125 0
0.0625 -0.25 0
0.125 -0.25 0
0.0625 -0.1875 0
0.125 -0.1875 0
0.0625 -0.1875 0
0.125 -0.1875 0
0.0625 -0.125 0
0.125 -0.125 0
0.125 -0.25 0
0.1875 -0.25 0
0.125 -0.1875 0
0.1875 -0.1875 0
0.125 -0.1875 0
0.1875 -0.1875 0
0.125 -0.125 0
0.1875 -0.125 0
0.4375 -0.875 0
0.5 -0.875 0
0.4375 -0.8125 0
0.5 -0.8125 0
0.375 -0.8125 0
0.4375 -0.8125 0
0.375 -0.75 0
0.4375 -0.75 0
0.4375 -0.8125 0
0.5 -0.8125 0
0.4375 -0.75 0
0.5 -0.75 0
0.125 -0.625 0
0.1875 -0.625 0
0.125 -0.5625 0
0.1875 -0.5625 0
0.1875 -0.625 0
0.25 -0.625 0
0.1875 -0.5625 0
0.25 -0.5625 0
0.125 -0.5625 0
0.1875 -0.5625 0
0.125 -0.5 0
0.1875 -0.5 0
0.1875 -0.5625 0
0.25 -0.5625 0
0.1875 -0.5 0
0.25 -0.5 0
0.3125 -0.75 0
0.375 -0.75 0
0.3125 -0.6875 0
0.375 -0.6875 0
0.3125 -0.6875 0
0.375 -0.6875 0
0.3125 -0.625 0
0.375 -0.625 0
0.5 -1 0
0.5625 -1 0
0.5 -0.9375 0
0.5625 -0.9375 0
0.5625 -1 0
0.625 -1 0
0.5625 -0.9375 0
0.625 -0.9375 0
0.5 -0.9375 0
0.5625 -0.9375 0
0.5 -0.875 0
0.5625 -0.875 0
0.75 -1 0
0.8125 -1 0
0.75 -0.9375 0
0.8125 -0.9375 0
0.8125 -1 0
0.875 -1 0
0.8125 -0.9375 0
0.875 -0.9375 0
0.8125 -0.9375 0
0.875 -0.9375 0
0.8125 -0.875 0
0.875 -0.875 0
0.875 -1 0
0.9375 -1 0
0.875 -0.9375 0
0.9375 -0.9375 0
0.9375 -1 0
1 -1 0
0.9375 -0.9375 0
1 -0.9375 0
0.875 -0.9375 0
0.9375 -0.9375 0
0.875 -0.875 0
0.9375 -0.875 0
0.9375 -0.9375 0
1 -0.9375 0
0.9375 -0.875 0
1 -0.875 0
0.9375 -0.875 0
1 -0.875 0
0.9375 -0.8125 0
1 -0.8125 0
0.9375 -0.8125 0
1 -0.8125 0
0.9375 -0.75 0
1 -0.75 0
0 -0.125 0
0.0625 -0.125 0
0 -0.0625 0
0.0625 -0.0625 0
0 -0.0625 0
0.0625 -0.0625 0
0 0 0
0.0625 0 0
0.0625 -0.0625 0
0.125 -0.0625 0
0.0625 0 0
0.125 0 0
0.125 -0.0625 0
0.1875 -0.0625 0
0.125 0 0
0.1875 0 0
0.1875 -0.0625 0
0.25 -0.0625 0
0.1875 0 0
0.25 0 0
0.375 -1 0
0.4375 -1 0
0.375 -0.9375 0
0.4375 -0.9375 0
0.4375 -1 0
0.5 -1 0
0.4375 -0.9375 0
0.5 -0.9375 0
0.375 -0.9375 0
0.4375 -0.9375 0
0.375 -0.875 0
0.4375 -0.875 0
0.4375 -0.9375 0
0.5 -0.9375 0
0.4375 -0.875 0
0.5 -0.875 0
0.25 -0.875 0
0.3125 -0.875 0
0.25 -0.8125 0
0.3125 -0.8125 0
0.3125 -0.875 0
0.375 -0.875 0
0.3125 -0.8125 0
0.375 -0.8125 0
0.25 -0.8125 0
0.3125 -0.8125 0
0.25 -0.75 0
0.3125 -0.75 0
0.3125 -0.8125 0
0.375 -0.8125 0
0.3125 -0.75 0
0.375 -0.75 0
0 -0.75 0
0.0625 -0.75 0
0 -0.6875 0
0.0625 -0.6875 0
0.0625 -0.75 0
0.125 -0.75 0
0.0625 -0.6875 0
0.125 -0.6875 0
-0.125 -0.25 0
-0.0625 -0.25 0
-0.125 -0.1875 0
-0.0625 -0.1875 0
-0.125 -0.1875 0
-0.0625 -0.1875 0
-0.125 -0.125 0
-0.0625 -0.125 0
-0.0625 -0.1875 0
0 -0.1875 0
-0.0625 -0.125 0
0 -0.125 0
0.25 -1 0
0.3125 -1 0
0.25 -0.9375 0
0.3125 -0.9375 0
0.3125 -1 0
0.375 -1 0
0.3125 -0.9375 0
0.375 -0.9375 0
0.25 -0.9375 0
0.3125 -0.9375 0
0.25 -0.875 0
0.3125 -0.875 0
0.3125 -0.9375 0
0.375 -0.9375 0
0.3125 -0.875 0
0.375 -0.875 0
-0.25 -0.5 0
-0.1875 -0.5 0
-0.25 -0.4375 0
-0.1875 -0.4375 0
-0.1875 -0.5 0
-0.125 -0.5 0
-0.1875 -0.4375 0
-0.125 -0.4375 0
-0.25 -0.4375 0
-0.1875 -0.4375 0
-0.25 -0.375 0
-0.1875 -0.375 0
-0.1875 -0.4375 0
-0.125 -0.4375 0
-0.1875 -0.375 0
-0.125 -0.375 0
-0.25 -0.375 0
-0.1875 -0.375 0
-0.25 -0.3125 0
-0.1875 -0.3125 0
-0.1875 -0.375 0
-0.125 -0.375 0
-0.1875 -0.3125 0
-0.125 -0.3125 0
-0.25 -0.3125 0
-0.1875 -0.3125 0
-0.25 -0.25 0
-0.1875 -0.25 0
-0.1875 -0.3125 0
-0.125 -0.3125 0
-0.1875 -0.25 0
-0.125 -0.25 0
-0.25 -0.25 0
-0.1875 -0.25 0
-0.25 -0.1875 0
-0.1875 -0.1875 0
-0.1875 -0.25 0
-0.125 -0.25 0
-0.1875 -0.1875 0
-0.125 -0.1875 0
-0.25 -0.1875 0
-0.1875 -0.1875 0
-0.25 -0.125 0
-0.1875 -0.125 0
-0.1875 -0.1875 0
-0.125 -0.1875 0
-0.1875 -0.125 0
-0.125 -0.125 0
-0.125 -0.125 0
-0.0625 -0.125 0
-0.125 -0.0625 0
-0.0625 -0.0625 0
-0.0625 -0.125 0
0 -0.125 0
-0.0625 -0.0625 0
0 -0.0625 0
-0.125 -0.0625 0
-0.0625 -0.0625 0
-0.125 0 0
-0.0625 0 0
-0.0625 -0.0625 0
0 -0.0625 0
-0.0625 0 0
0 0 0
-0.125 -0.875 0
-0.0625 -0.875 0
-0.125 -0.8125 0
-0.0625 -0.8125 0
-0.0625 -0.875 0
0 -0.875 0
-0.0625 -0.8125 0
0 -0.8125 0
-0.125 -0.8125 0
-0.0625 -0.8125 0
-0.125 -0.75 0
-0.0625 -0.75 0
-0.0625 -0.8125 0
0 -0.8125 0
-0.0625 -0.75 0
0 -0.75 0
-0.25 -0.75 0
-0.1875 -0.75 0
-0.25 -0.6875 0
-0.1875 -0.6875 0
-0.1875 -0.75 0
-0.125 -0.75 0
-0.1875 -0.6875 0
-0.125 -0.6875 0
-0.25 -0.6875 0
-0.1875 -0.6875 0
-0.25 -0.625 0
-0.1875 -0.625 0
-0.1875 -0.6875 0
-0.125 -0.6875 0
-0.1875 -0.625 0
-0.125 -0.625 0
-0.125 -0.75 0
-0.0625 -0.75 0
-0.125 -0.6875 0
-0.0625 -0.6875 0
-0.0625 -0.75 0
0 -0.75 0
-0.0625 -0.6875 0
0 -0.6875 0
-0.125 -0.6875 0
-0.0625 -0.6875 0
-0.125 -0.625 0
-0.0625 -0.625 0
-0.0625 -0.6875 0
0 -0.6875 0
-0.0625 -0.625 0
0 -0.625 0
-0.25 -0.625 0
-0.1875 -0.625 0
-0.25 -0.5625 0
-0.1875 -0.5625 0
-0.1875 -0.625 0
-0.125 -0.625 0
-0.1875 -0.5625 0
-0.125 -0.5625 0
-0.25 -0.5625 0
-0.1875 -0.5625 0
-0.25 -0.5 0
-0.1875 -0.5 0
-0.1875 -0.5625 0
-0.125 -0.5625 0
-0.1875 -0.5 0
-0.125 -0.5 0
-0.125 -0.625 0
[...]
POINT_DATA 6144
SCALARS U double 1
LOOKUP_TABLE default
0 0 0 -1.01198e-06 0 0 -1.01198e-06 -2.90308e-06 0 -1.01198e-06 0 -2.59992e-06 -1.01198e-06 -2.90308e-06 -2.59992e-06 1.1013e-06 0 0 -2.90308e-06 3.95898e-05 0 -2.59992e-06 0 -2.30956e-06 -2.59992e-06 1.1013e-06 -2.30956e-06 1.95281e-06 0 -2.30956e-06 0 -1.00366e-06 -2.30956e-06 1.95281e-06 -1.00366e-06 1.02193e-06 0 -1.00366e-06 0 -1.69068e-07 -1.00366e-06 1.02193e-06 -1.69068e-07 3.95519e-07 0 -1.69068e-07 0 3.73175e-08 -1.69068e-07 3.95519e-07 3.73175e-08 -1.48969e-07 1.02193e-06 2.43953e-05 3.95519e-07 7.00242e-08 3.95519e-07 7.00242e-08 -1.48969e-07 -3.59783e-07 7.00242e-08 0 -3.59783e-07 0 0 3.73175e-08 0 -2.53953e-09 3.73175e-08 -1.48969e-07 -2.53953e-09 1.78092e-08 0 -2.53953e-09 0 0 -2.53953e-09 1.78092e-08 0 0 -1.48969e-07 -3.59783e-07 1.78092e-08 5.15795e-08 -3.59783e-07 0 5.15795e-08 0 1.78092e-08 5.15795e-08 0 0 5.15795e-08 0 0 0 5.67698e-05 0.000152238 2.43953e-05 6.07739e-05 0 0 1.97949e-05 6.19728e-05 0 0 6.19728e-05 0.000152667 1.97949e-05 6.19728e-05 3.95898e-05 0.000133435 0 0 0.000152667 0.000322145 -2.90308e-06 1.83433e-05 -9.00892e-07 1.69981e-05 1.83433e-05 3.95898e-05 1.69981e-05 7.2273e-05 -9.00892e-07 1.69981e-05 1.1013e-06 2.29197e-05 1.69981e-05 7.2273e-05 2.29197e-05 9.24326e-05 1.1013e-06 2.29197e-05 1.52705e-06 2.52576e-05 2.29197e-05 9.24326e-05 2.52576e-05 0.000100165 1.52705e-06 2.52576e-05 1.95281e-06 2.30398e-05 2.52576e-05 0.000100165 2.30398e-05 8.83331e-05 1.95281e-06 2.30398e-05 1.48737e-06 1.72581e-05 2.30398e-05 8.83331e-05 1.72581e-05 5.67698e-05 1.48737e-06 1.72581e-05 1.02193e-06 1.27086e-05 1.72581e-05 5.67698e-05 1.27086e-05 2.43953e-05 2.43953e-05 6.07739e-05 1.22326e-05 5.9598e-06 6.07739e-05 0 5.9598e-06 0 1.22326e-05 5.9598e-06 7.00242e-08 3.50121e-08 5.9598e-06 0 3.50121e-08 0 0.00216106 0 0.00198239 0 0.00216156 0.00198271 0 0 0.00198239 0 0.00165116 0 0.00165116 0 0.00118276 0 0.00198271 0.00165133 0 0 0.00165133 0.0011828 0 0 0.000619622 0 0 0 0.00267034 0.00289022 0.00352344 0.00382734 0.00157486 0.000821183 0.00208441 0.00109451 0.000821183 0 0.00109451 0 0.00166362 0 0.00191947 0 0.00275729 0.00356827 0.00298376 0.0038779 0.00161971 0.00211215 0.000845196 0.00110764 0.000845196 0.00110764 0 0 0.00166687 0.0019214 0 0 0.00198901 0.00235232 0.00261064 0.00309671 0.00235232 0.00267034 0.00309671 0.00352344 0.00261064 0.00309671 0.00325825 0.00387798 0.00309671 0.00352344 0.00387798 0.00441021 0.00204538 0.00263308 0.00242737 0.00313219 0.00263308 0.00325825 0.00313219 0.003891 0.00242737 0.00313219 0.00275729 0.00356827 0.00313219 0.003891 0.00356827 0.00443096 0.00325825 0.00387798 0.003891 0.00462651 0 0 0.000652499 0.000628474 0 0 0.000628474 0.000571069 0.000628474 0.000571069 0.00130598 0.00118544 0.0012038 0.00130229 0.00189427 0.00205308 0.00130229 0.00134661 0.00205308 0.00212004 0.00189427 0.00205308 0.00267034 0.00289022 0.00134661 0.00130598 0.00212004 0.0020647 0.00130598 0.00118544 0.0020647 0.0018771 0.00118544 0.000979208 0.0018771 0.00155029 0.000979208 0.000700451 0.00155029 0.00110523 0.00155029 0.00110523 0.00219544 0.00157486 0.000682178 0.00101522 0.000732998 0.00109631 0.00101522 0.0014718 0.00109631 0.00158983 0.000732998 0.00109631 0.000750613 0.00112551 0.00109631 0.00158983 0.00112551 0.00163533 0.0014718 0.00205169 0.00158983 0.00222049 0.00205169 0.00275729 0.00222049 0.00298376 0.00158983 0.00222049 0.00163533 0.0022935 0.000750613 0.00112551 0.000725027 0.00109042 0.00112551 0.00163533 0.00109042 0.00158993 0.000725027 0.00109042 0.00065219 0.000986787 0.00109042 0.00158993 0.000986787 0.00144064 0.00163533 0.0022935 0.00158993 0.00222436 0.000986787 0.00144064 0.000818297 0.00118857 0.000818297 0.00118857 0.000580615 0.000845101 0.00144064 0.00201899 0.00118857 0.00167413 0.00118857 0.00167413 0.000845101 0.00119716 0.00106537 0.0012038 0.00167378 0.00189427 0.00141794 0.00167378 0.00198901 0.00235232 0.00167378 0.00189427 0.00235232 0.00267034 0.00110806 0.0015314 0.00130816 0.00181025 0.0015314 0.00204538 0.00181025 0.00242737 0.00130816 0.00181025 0.0014718 0.00205169 0.00181025 0.00242737 0.00205169 0.00275729 0.0016147 0.00198901 0.00211755 0.00261064 0.00211755 0.00261064 0.00263308 0.00325825 0 0 0.000582664 0.000628687 0 0 0.000628687 0.000652499 0.000582664 0.000628687 0.0012038 0.00130229 0 0 0.000571069 0.000472286 0 0 0.000472286 0.000337345 0.000472286 0.000337345 0.000979208 0.000700451 0 0 0.000337345 0.000175767 0 0 0.000175767 0 0.000337345 0.000175767 0.000700451 0.000365819 0.000175767 0 0.000365819 0 0.000365819 0 0.000573697 0 0.000573697 0 0.000821183 0 0.000384911 0.000580615 0.000205045 0.000302596 0.000205045 0.000302596 0 0 0.000302596 0.000439653 0 0 0.000439653 0.000617877 0 0 0.000617877 0.000845196 0 0 0 0 0.000438544 0.000516427 0 0 0.000516427 0.000582664 0.000438544 0.000516427 0.000906143 0.00106537 0.000516427 0.000582664 0.00106537 0.0012038 0.000584134 0.000738777 0.000906146 0.00115553 0.000738777 0.000906143 0.00115553 0.00141794 0.000906146 0.00115553 0.00126753 0.0016147 0.00115553 0.00141794 0.0016147 0.00198901 0.000332442 0.000486123 0.000425257 0.000627216 0.000486123 0.000696987 0.000627216 0.000899322 0.000256205 0.00041757 0.000214251 0.000342721 0.000214251 0.000342721 0.000152238 0.000248064 0.000342721 0.00053945 0.000248064 0.000384911 0 0 0.000283764 0.000359719 0 0 0.000359719 0.000438544 0.000283764 0.000359719 0.000584134 0.000738777 0.000359719 0.000438544 0.000738777 0.000906143 9.24326e-05 0.000160859 9.62986e-05 0.000172248 0.000160859 0.000273899 0.000172248 0.000294612 9.62986e-05 0.000172248 0.000100165 0.000174795 0.000172248 0.000294612 0.000174795 0.000298176 0.000100165 0.000174795 9.42488e-05 0.000168589 0.000174795 0.000298176 0.000168589 0.000289761 9.42488e-05 0.000168589 8.83331e-05 0.000152342 0.000168589 0.000289761 0.000152342 0.000256205 8.83331e-05 0.000152342 7.25515e-05 0.000127269 0.000152342 0.000256205 0.000127269 0.000214251 7.25515e-05 0.000127269 5.67698e-05 0.000104504 0.000127269 0.000214251 0.000104504 0.000152238 0.000152238 0.000248064 0.000106506 0.000141051 0.000248064 0.000384911 0.000141051 0.000205045 0.000106506 0.000141051 6.07739e-05 3.03869e-05 0.000141051 0.000205045 3.03869e-05 0 6.19728e-05 0.00010732 9.7704e-05 0.000156646 0.00010732 0.000152667 0.000156646 0.00024347 9.7704e-05 0.000156646 0.000133435 0.000215285 0.000156646 0.00024347 0.000215285 0.000332442 3.95898e-05 8.65125e-05 5.59314e-05 0.000102096 8.65125e-05 0.000133435 0.000102096 0.000174557 5.59314e-05 0.000102096 7.2273e-05 0.0001245 0.000102096 0.000174557 0.0001245 0.000211346 0.000133435 0.000215285 0.000174557 0.000275919 0.000215285 0.000332442 0.000275919 0.000425257 0.000174557 0.000275919 0.000211346 0.000335814 0.000275919 0.000425257 0.000335814 0.000523004 7.2273e-05 0.0001245 8.23528e-05 0.000144894 0.0001245 0.000211346 0.000144894 0.00024569 8.23528e-05 0.000144894 9.24326e-05 0.000160859 0.000144894 0.00024569 0.000160859 0.000273899 0.000211346 0.000335814 0.00024569 0.000391658 0.000335814 0.000523004 0.000391658 0.000612699 0.00024569 0.000391658 0.000273899 0.00043376 0.000391658 0.000612699 0.00043376 0.000682178 0 0 0.000161073 0.00021581 0 0 0.00021581 0.000283764 0.000161073 0.00021581 0.000322145 0.0004431 0.00021581 0.000283764 0.0004431 0.000584134 0.000152667 0.000237406 0.00024347 0.000353915 0.000237406 0.000322145 0.000353915 0.000503975 0.00024347 0.000353915 0.000332442 0.000486123 0.000353915 0.000503975 0.000486123 0.000696987 0.000322145 0.0004431 0.000503975 0.000686063 0.0004431 0.000584134 0.000686063 0.000906146 0.000503975 0.000686063 0.000696987 0.000951458 0.000686063 0.000906146 0.000951458 0.00126753 0.00616709 0.00569345 0.00648424 0.00598921 0.00569345 0.00511419 0.00598921 0.00540763 0.00598921 0.00540763 0.0062576 0.00559944 0.00511419 0.0044255 0.00540763 0.00467148 0.0044255 0.00367064 0.00467148 0.00388237 0.00540763 0.00467148 0.00559944 0.00489707 0.00467148 0.00388237 0.00489707 0.00401286 0.00218118 0.00112007 0.0021908 0.00111112 0.00112007 0 0.00111112 0 0.0021908 0.00111112 0.00216106 0.00108053 0.00111112 0 0.00108053 0 0.00298216 0.00298686 0.00345153 0.00345209 0.00298686 0.00290905 0.00345209 0.00336535 0.00345153 0.00345209 0.00395329 0.00395922 0.00345209 0.00336535 0.00395922 0.00385712 0.00617134 0.00648914 0.00570068 0.00599097 0.00570068 0.00599097 0.00512078 0.00541133 0.00599097 0.00626384 0.00541133 0.00560059 0.00512078 0.00541133 0.0044296 0.00467436 0.00541133 0.00560059 0.00467436 0.00489978 0.0044296 0.00467436 0.00367417 0.00388514 0.00467436 0.00489978 0.00388514 0.0040147 0.00218193 0.00219142 0.00112045 0.00111146 0.00219142 0.00216156 0.00111146 0.00108078 0.00112045 0.00111146 0 0 0.00111146 0.00108078 0 0 0.00290905 0.00281844 0.00336535 0.00326028 0.00281844 0.0026443 0.00326028 0.00306061 0.00336535 0.00326028 0.00385712 0.00374118 0.00326028 0.00306061 0.00374118 0.00351093 0.0026443 0.00245788 0.00306061 0.00284355 0.00245788 0.00219544 0.00284355 0.00253317 0.00306061 0.00284355 0.00351093 0.0032632 0.00284355 0.00253317 0.0032632 0.00290906 0.00219544 0.00188515 0.00253317 0.0022121 0.00188515 0.00157486 0.0022121 0.00182963 0.00253317 0.0022121 0.00290906 0.00254228 0.0022121 0.00182963 0.00254228 0.00208441 0.00308173 0.00352186 0.0030823 0.00352116 0.00352186 0.00400604 0.00352116 0.0040118 0.0030823 0.00352116 0.00300765 0.00343546 0.00352116 0.0040118 0.00343546 0.00391119 0.00272968 0.00312241 0.00253105 0.00289776 0.00312241 0.00356138 0.00289776 0.00330719 0.00253105 0.00289776 0.00225549 0.00258483 0.00289776 0.00330719 0.00258483 0.00294664 0.00325847 0.00218118 0.00325324 0.0021908 0.00420892 0.00325324 0.00411758 0.00319291 0.00325324 0.0021908 0.00319291 0.00216106 0.00319291 0.00216106 0.00310215 0.00207172 0.00310215 0.00207172 0.00292543 0.00198239 0.00420991 0.00411883 0.00325401 0.00319349 0.00325947 0.00325401 0.00218193 0.00219142 0.00325401 0.00319349 0.00219142 0.00216156 0.00319349 0.00310264 0.00216156 0.00207214 0.00310264 0.00292579 0.00207214 0.00198271 0.00334304 0.00274033 0.00274041 0.00223463 0.00292543 0.00198239 0.00272405 0.00181678 0.00272405 0.00181678 0.00243395 0.00165116 0.00313291 0.00243395 0.00274033 0.00212384 0.00243395 0.00165116 0.00212384 0.00141696 0.00274033 0.00212384 0.00223463 0.00174966 0.00212384 0.00141696 0.00174966 0.00118276 0.00367064 0.00283134 0.00388237 0.00295767 0.00292579 0.00272433 0.00198271 0.00181702 0.00272433 0.00243415 0.00181702 0.00165133 0.00210775 0.00106473 0.00217144 0.00108723 0.00106473 0 0.00108723 0 0.00108723 0 0.00112007 0 0.00367417 0.00388514 0.00283457 0.00295962 0.00313308 0.00274041 0.00243415 0.00212395 0.00274041 0.00223463 0.00212395 0.0017497 0.00243415 0.00212395 0.00165133 0.00141706 0.00212395 0.0017497 0.00141706 0.0011828 0.00210878 0.00217231 0.00106525 0.00108767 0.00106525 0.00108767 0 0 0.00108767 0.00112045 0 0 0.00118276 0.00059138 0.000918495 0.000456925 0.00059138 0 0.000456925 0 0.000918495 0.000456925 0.000619622 0.000309811 0.000456925 0 0.000309811 0 0.0011828 0.000918505 0.0005914 0.000456934 0.000918505 0.000619622 0.000456934 0.000309811 0.0005914 0.000456934 0 0 0.000456934 0.000309811 0 0 0.00670353 0.00696466 0.00696625 0.00725905 0.00435707 0.00419666 0.0048674 0.00470295 0.00419666 0.00396637 0.00470295 0.00443553 0.0048674 0.00470295 0.00537364 0.00515829 0.00470295 0.00443553 0.00515829 0.00490168 0.00537364 0.00515829 0.0058623 0.00565889 0.00515829 0.00490168 0.00565889 0.00534746 0.00595132 0.0058623 0.00645701 0.00630448 0.00643741 0.00645701 0.00689553 0.00684668 0.00645701 0.00630448 0.00684668 0.00675872 0.0058623 0.00565889 0.00630448 0.00611184 0.00565889 0.00534746 0.00611184 0.00575105 0.00630448 0.00611184 0.00675872 0.00648987 0.00611184 0.00575105 0.00648987 0.00616709 0.00367158 0.00328783 0.00408506 0.00368903 0.00491951 0.00444499 0.00533615 0.00479279 0.00575105 0.00533615 0.00616709 0.00569345 0.00533615 0.00479279 0.00569345 0.00511419 0.0043927 0.00489435 0.00423516 0.00472829 0.0037754 0.00423516 0.00356138 0.00399889 0.00423516 0.00472829 0.00399889 0.00446299 0.00644601 0.00690156 0.00646633 0.00685268 0.00596478 0.00646633 0.00587457 0.0063143 0.00646633 0.00685268 0.0063143 0.00676426 0.00489435 0.00539029 0.00472829 0.00518586 0.00539029 0.00587457 0.00518586 0.0056727 0.00472829 0.00518586 0.00446299 0.00490705 0.00518586 0.0056727 0.00490705 0.00535868 0.00587457 0.0063143 0.0056727 0.00612037 0.0063143 0.00676426 0.00612037 0.00649498 0.0056727 0.00612037 0.00535868 0.00576253 0.00612037 0.00649498 0.00576253 0.00617134 0.00399889 0.00446299 0.00369415 0.00412923 0.00369415 0.00412923 0.00332064 0.00370437 0.00332064 0.00370437 0.00288227 0.00319997 0.00446299 0.00490705 0.00412923 0.00452888 0.00490705 0.00535868 0.00452888 0.00496238 0.00412923 0.00452888 0.00370437 0.00408079 0.00452888 0.00496238 0.00408079 0.00444427 0.00535868 0.00576253 0.00496238 0.00533328 0.00576253 0.00617134 0.00533328 0.00570068 0.00496238 0.00533328 0.00444427 0.00479757 0.00533328 0.00570068 0.00479757 0.00512078 0.00541328 0.00549557 0.00592074 0.00598843 0.00191947 0.000959736 0.00201899 0.00101769 0.000959736 0 0.00101769 0 0.00201899 0.00101769 0.00210775 0.00106473 0.00101769 0 0.00106473 0 0.00592074 0.00598843 0.00637786 0.00643741 0.00637786 0.00643741 0.00678547 0.00689553 0.0019214 0.00202033 0.000960701 0.00101835 0.00202033 0.00210878 0.00101835 0.00106525 0.000960701 0.00101835 0 0 0.00101835 0.00106525 0 0 0.00263222 0.00203752 0.00291827 0.00223068 0.00203752 0.00137048 0.00223068 0.00151761 0.00291827 0.00223068 0.00317854 0.00245277 0.00223068 0.00151761 0.00245277 0.00166362 0.00317854 0.00245277 0.00343826 0.00263665 0.00245277 0.00166362 0.00263665 0.00179154 0.00343826 0.00263665 0.00367064 0.00283134 0.00263665 0.00179154 0.00283134 0.00191947 0.00225549 0.00258483 0.00197159 0.00225588 0.00258483 0.00294664 0.00225588 0.00257549 0.00197159 0.00225588 0.00161971 0.00186593 0.00225588 0.00257549 0.00186593 0.00211215 0.00543156 0.00593306 0.00551456 0.0060015 0.00593306 0.0063858 0.0060015 0.00644601 0.0063858 0.0067904 0.00644601 0.00690156 0.00264652 0.00292708 0.00204859 0.0022372 0.00292708 0.0031877 0.0022372 0.00246028 0.00204859 0.0022372 0.00137787 0.0015225 0.0022372 0.00246028 0.0015225 0.00166687 0.0031877 0.00344164 0.00246028 0.00263891 0.00344164 0.00367417 0.00263891 0.00283457 0.00246028 0.00263891 0.00166687 0.00179413 0.00263891 0.00283457 0.00179413 0.0019214 0.00289022 0.00297341 0.00335878 0.00343188 0.00297341 0.00298216 0.00343188 0.00345153 0.00335878 0.00343188 0.00382734 0.00393046 0.00343188 0.00345153 0.00393046 0.00395329 0.00352344 0.00367539 0.00396683 0.00416397 0.00367539 0.00382734 0.00416397 0.00430075 0.00396683 0.00416397 0.00441021 0.00464163 0.00416397 0.00430075 0.00464163 0.00480006 0.00382734 0.00393046 0.00430075 0.00442309 0.00393046 0.00395329 0.00442309 0.00445055 0.00430075 0.00442309 0.00480006 0.00494137 0.00442309 0.00445055 0.00494137 0.00497298 0.00441021 0.00464163 0.00485103 0.00511096 0.00464163 0.00480006 0.00511096 0.00528894 0.00485103 0.00511096 0.00527903 0.005562 0.00511096 0.00528894 0.005562 0.00575766 0.00527903 0.005562 0.00569053 0.00599837 0.005562 0.00575766 0.00599837 0.00621399 0.00569053 0.00599837 0.00604228 0.00637701 0.00599837 0.00621399 0.00637701 0.00660996 0.00208441 0.00158946 0.00234666 0.00181824 0.00158946 0.00109451 0.00181824 0.00122208 0.00234666 0.00181824 0.00263222 0.00203752 0.00181824 0.00122208 0.00203752 0.00137048 0.00109451 0.000547257 0.00122208 0.000624175 0.000547257 0 0.000624175 0 0.00122208 0.000624175 0.00137048 0.000697484 0.000624175 0 0.000697484 0 0.00137048 0.000697484 0.00151761 0.000770728 0.000697484 0 0.000770728 0 0.00151761 0.000770728 0.00166362 0.000831809 0.000770728 0 0.000831809 0 0.00356827 0.00399962 0.00372309 0.0041977 0.00399962 0.00443096 0.0041977 0.00466553 0.00372309 0.0041977 0.0038779 0.00433636 0.0041977 0.00466553 0.00433636 0.00482551 0.00298376 0.00343083 0.00307085 0.00350305 0.00343083 0.0038779 0.00350305 0.00398367 0.00307085 0.00350305 0.00308173 0.00352186 0.00350305 0.00398367 0.00352186 0.00400604 0.0038779 0.00433636 0.00398367 0.00446011 0.00433636 0.00482551 0.00446011 0.00496818 0.00398367 0.00446011 0.00400604 0.00448773 0.00446011 0.00496818 0.00448773 0.00500046 0.00443096 0.00486373 0.00466553 0.00512616 0.00486373 0.00528639 0.00512616 0.00557175 0.00466553 0.00512616 0.00482551 0.0053057 0.00512616 0.00557175 0.0053057 0.005769 0.00528639 0.00569343 0.00557175 0.0060036 0.00569343 0.00604228 0.0060036 0.00637936 0.00557175 0.0060036 0.005769 0.00622076 0.0060036 0.00637936 0.00622076 0.00661379 0.00211215 0.0023661 0.00160989 0.00183305 0.0023661 0.00264652 0.00183305 0.00204859 0.00160989 0.00183305 0.00110764 0.00123186 0.00183305 0.00204859 0.00123186 0.00137787 0.00110764 0.00123186 0.000553818 0.000629017 0.00123186 0.00137787 0.000629017 0.000701155 0.000553818 0.000629017 0 0 0.000629017 0.000701155 0 0 0.00205308 0.00208656 0.00247165 0.00251643 0.00208656 0.00212004 0.00251643 0.00254193 0.00247165 0.00251643 0.00289022 0.00297341 0.00251643 0.00254193 0.00297341 0.00298216 0.00137787 0.0015225 0.000701155 0.000773373 0.0015225 0.00166687 0.000773373 0.000833433 0.000701155 0.000773373 0 0 0.000773373 0.000833433 0 0 0.00387798 0.0041441 0.00425224 0.00457822 0.0041441 0.00441021 0.00457822 0.00485103 0.00425224 0.00457822 0.00462651 0.00497725 0.00457822 0.00485103 0.00497725 0.00527903 0.00212004 0.00209237 0.00254193 0.00252471 0.00209237 0.0020647 0.00252471 0.00247964 0.0020647 0.0019709 0.00247964 0.00237926 0.0019709 0.0018771 0.00237926 0.0022542 0.003891 0.00425876 0.00416098 0.00458798 0.00425876 0.00462651 0.00458798 0.00498179 0.00416098 0.00458798 0.00443096 0.00486373 0.00458798 0.00498179 0.00486373 0.00528639 0.00462651 0.00497725 0.00498179 0.00536486 0.00497725 0.00527903 0.00536486 0.00569053 0.00498179 0.00536486 0.00528639 0.00569343 0.00536486 0.00569053 0.00569343 0.00604228 0.0018771 0.00171369 0.0022542 0.00207377 0.00171369 0.00155029 0.00207377 0.00187287 0.00207377 0.00187287 0.00245788 0.00219544 0.000652499 0.000640487 0.000978487 0.000979513 0.000640487 0.000628474 0.000979513 0.000967227 0.000978487 0.000979513 0.00134661 0.0013263 0.000979513 0.000967227 0.0013263 0.00130598 0.00065219 0.000819488 0.000608878 0.000740541 0.000819488 0.000986787 0.000740541 0.000902542 0.000608878 0.000740541 0.00053945 0.000657306 0.000740541 0.000902542 0.000657306 0.000818297 0.00053945 0.000657306 0.00046218 0.000573404 0.000657306 0.000818297 0.000573404 0.000699456 0.00046218 0.000573404 0.000384911 0.000482763 0.000573404 0.000699456 0.000482763 0.000580615 0.000906143 0.000985755 0.00116204 0.00125721 0.000985755 0.00106537 0.00125721 0.00136957 0.00116204 0.00125721 0.00141794 0.00154586 0.00125721 0.00136957 0.00154586 0.00167378 0.00126753 0.00144112 0.00145792 0.00164967 0.00144112 0.0016147 0.00164967 0.00186613 0.00145792 0.00164967 0.00165435 0.00187756 0.00164967 0.00186613 0.00187756 0.00211755 0.00165435 0.00187756 0.00185388 0.00210152 0.00187756 0.00211755 0.00210152 0.00237531 0.00185388 0.00210152 0.00204538 0.00233923 0.00210152 0.00237531 0.00233923 0.00263308 0.000628687 0.000640593 0.000965489 0.000977636 0.000640593 0.000652499 0.000977636 0.000978487 0.000965489 0.000977636 0.00130229 0.00132445 0.000977636 0.000978487 0.00132445 0.00134661 0.000571069 0.000521677 0.000878252 0.000801588 0.000521677 0.000472286 0.000801588 0.000725747 0.000878252 0.000801588 0.00118544 0.00108232 0.000801588 0.000725747 0.00108232 0.000979208 0.00222049 0.00260213 0.002257 0.00264625 0.00260213 0.00298376 0.00264625 0.00307085 0.002257 0.00264625 0.0022935 0.0026749 0.000700451 0.000533135 0.000902839 0.000688323 0.000533135 0.000365819 0.000688323 0.000469758 0.000902839 0.000688323 0.00110523 0.000859355 0.000688323 0.000469758 0.000859355 0.000573697 0.00110523 0.000859355 0.00134004 0.0