# vtk DataFile Version 3.0
#This file was generated by the deal.II library on 2021/4/23 at 0:45:41
ASCII
DATASET UNSTRUCTURED_GRID

FIELD FieldData 2
CYCLE 1 1 int
63
TIME 1 1 double
0.126
POINTS 1824 double
-1 -1 0
-0.75 -1 0
-1 -0.75 0
-0.75 -0.75 0
-0.75 -1 0
-0.5 -1 0
-0.75 -0.75 0
-0.5 -0.75 0
-1 -0.75 0
-0.75 -0.75 0
-1 -0.5 0
-0.75 -0.5 0
-0.75 -0.75 0
-0.5 -0.75 0
-0.75 -0.5 0
-0.5 -0.5 0
-0.5 -1 0
-0.25 -1 0
-0.5 -0.75 0
-0.25 -0.75 0
-0.25 -1 0
0 -1 0
-0.25 -0.75 0
0 -0.75 0
-1 -0.5 0
-0.75 -0.5 0
-1 -0.25 0
-0.75 -0.25 0
-0.75 -0.5 0
-0.5 -0.5 0
-0.75 -0.25 0
-0.5 -0.25 0
-1 -0.25 0
-0.75 -0.25 0
-1 0 0
-0.75 0 0
-0.75 -0.25 0
-0.5 -0.25 0
-0.75 0 0
-0.5 0 0
-0.5 -0.25 0
-0.25 -0.25 0
-0.5 0 0
-0.25 0 0
0 -1 0
0.25 -1 0
0 -0.75 0
0.25 -0.75 0
-1 0 0
-0.75 0 0
-1 0.25 0
-0.75 0.25 0
0.875 -0.75 0
1 -0.75 0
0.875 -0.625 0
1 -0.625 0
0.875 -0.625 0
1 -0.625 0
0.875 -0.5 0
1 -0.5 0
0.25 -0.125 0
0.375 -0.125 0
0.25 0 0
0.375 0 0
0.375 -0.125 0
0.5 -0.125 0
0.375 0 0
0.5 0 0
0.25 -0.75 0
0.375 -0.75 0
0.25 -0.625 0
0.375 -0.625 0
0.25 -0.625 0
0.375 -0.625 0
0.25 -0.5 0
0.375 -0.5 0
0.375 -0.625 0
0.5 -0.625 0
0.375 -0.5 0
0.5 -0.5 0
0.5 -1 0
0.625 -1 0
0.5 -0.875 0
0.625 -0.875 0
0.625 -1 0
0.75 -1 0
0.625 -0.875 0
0.75 -0.875 0
0.5 -0.875 0
0.625 -0.875 0
0.5 -0.75 0
0.625 -0.75 0
0.625 -0.875 0
0.75 -0.875 0
0.625 -0.75 0
0.75 -0.75 0
0.75 -1 0
0.875 -1 0
0.75 -0.875 0
0.875 -0.875 0
0.875 -1 0
1 -1 0
0.875 -0.875 0
1 -0.875 0
0.75 -0.875 0
0.875 -0.875 0
0.75 -0.75 0
0.875 -0.75 0
0.875 -0.875 0
1 -0.875 0
0.875 -0.75 0
1 -0.75 0
0 -0.5 0
0.125 -0.5 0
0 -0.375 0
0.125 -0.375 0
0.125 -0.5 0
0.25 -0.5 0
0.125 -0.375 0
0.25 -0.375 0
0 -0.375 0
0.125 -0.375 0
0 -0.25 0
0.125 -0.25 0
0.125 -0.375 0
0.25 -0.375 0
0.125 -0.25 0
0.25 -0.25 0
0 -0.25 0
0.125 -0.25 0
0 -0.125 0
0.125 -0.125 0
0.125 -0.25 0
0.25 -0.25 0
0.125 -0.125 0
0.25 -0.125 0
0.125 -0.125 0
0.25 -0.125 0
0.125 0 0
0.25 0 0
0.25 -1 0
0.375 -1 0
0.25 -0.875 0
0.375 -0.875 0
0.375 -1 0
0.5 -1 0
0.375 -0.875 0
0.5 -0.875 0
0.25 -0.875 0
0.375 -0.875 0
0.25 -0.75 0
0.375 -0.75 0
0.375 -0.875 0
0.5 -0.875 0
0.375 -0.75 0
0.5 -0.75 0
0 -0.75 0
0.125 -0.75 0
0 -0.625 0
0.125 -0.625 0
0.125 -0.75 0
0.25 -0.75 0
0.125 -0.625 0
0.25 -0.625 0
0 -0.625 0
0.125 -0.625 0
0 -0.5 0
0.125 -0.5 0
0.125 -0.625 0
0.25 -0.625 0
0.125 -0.5 0
0.25 -0.5 0
-0.25 -0.5 0
-0.125 -0.5 0
-0.25 -0.375 0
-0.125 -0.375 0
-0.125 -0.5 0
0 -0.5 0
-0.125 -0.375 0
0 -0.375 0
-0.25 -0.375 0
-0.125 -0.375 0
-0.25 -0.25 0
-0.125 -0.25 0
-0.125 -0.375 0
0 -0.375 0
-0.125 -0.25 0
0 -0.25 0
-0.25 -0.25 0
-0.125 -0.25 0
-0.25 -0.125 0
-0.125 -0.125 0
-0.125 -0.25 0
0 -0.25 0
-0.125 -0.125 0
0 -0.125 0
-0.25 -0.125 0
-0.125 -0.125 0
-0.25 0 0
-0.125 0 0
-0.75 0 0
-0.625 0 0
-0.75 0.125 0
-0.625 0.125 0
-0.625 0 0
-0.5 0 0
-0.625 0.125 0
-0.5 0.125 0
-0.75 0.125 0
-0.625 0.125 0
-0.75 0.25 0
-0.625 0.25 0
-0.625 0.125 0
-0.5 0.125 0
-0.625 0.25 0
-0.5 0.25 0
-0.25 -0.75 0
-0.125 -0.75 0
-0.25 -0.625 0
-0.125 -0.625 0
-0.125 -0.75 0
0 -0.75 0
-0.125 -0.625 0
0 -0.625 0
-0.25 -0.625 0
-0.125 -0.625 0
-0.25 -0.5 0
-0.125 -0.5 0
-0.125 -0.625 0
0 -0.625 0
-0.125 -0.5 0
0 -0.5 0
-1 0.25 0
-0.875 0.25 0
-1 0.375 0
-0.875 0.375 0
-0.875 0.25 0
-0.75 0.25 0
-0.875 0.375 0
-0.75 0.375 0
-1 0.375 0
-0.875 0.375 0
-1 0.5 0
-0.875 0.5 0
-0.875 0.375 0
-0.75 0.375 0
-0.875 0.5 0
-0.75 0.5 0
-0.5 -0.75 0
-0.375 -0.75 0
-0.5 -0.625 0
-0.375 -0.625 0
-0.375 -0.75 0
-0.25 -0.75 0
-0.375 -0.625 0
-0.25 -0.625 0
-0.5 -0.625 0
-0.375 -0.625 0
-0.5 -0.5 0
-0.375 -0.5 0
-0.375 -0.625 0
-0.25 -0.625 0
-0.375 -0.5 0
-0.25 -0.5 0
-0.5 -0.5 0
-0.375 -0.5 0
-0.5 -0.375 0
-0.375 -0.375 0
-0.375 -0.5 0
-0.25 -0.5 0
-0.375 -0.375 0
-0.25 -0.375 0
-0.5 -0.375 0
-0.375 -0.375 0
-0.5 -0.25 0
-0.375 -0.25 0
-0.375 -0.375 0
-0.25 -0.375 0
-0.375 -0.25 0
-0.25 -0.25 0
-0.75 0.25 0
-0.625 0.25 0
-0.75 0.375 0
-0.625 0.375 0
-0.625 0.25 0
-0.5 0.25 0
-0.625 0.375 0
-0.5 0.375 0
-0.75 0.375 0
-0.625 0.375 0
-0.75 0.5 0
-0.625 0.5 0
-0.625 0.375 0
-0.5 0.375 0
-0.625 0.5 0
-0.5 0.5 0
-0.25 0 0
-0.125 0 0
-0.25 0.125 0
-0.125 0.125 0
-0.25 0.125 0
-0.125 0.125 0
-0.25 0.25 0
-0.125 0.25 0
-0.125 0.125 0
0 0.125 0
-0.125 0.25 0
0 0.25 0
-1 0.75 0
-0.875 0.75 0
-1 0.875 0
-0.875 0.875 0
-0.875 0.75 0
-0.75 0.75 0
-0.875 0.875 0
-0.75 0.875 0
-1 0.875 0
-0.875 0.875 0
-1 1 0
-0.875 1 0
-0.875 0.875 0
-0.75 0.875 0
-0.875 1 0
-0.75 1 0
-0.5 0 0
-0.375 0 0
-0.5 0.125 0
-0.375 0.125 0
-0.375 0 0
-0.25 0 0
-0.375 0.125 0
-0.25 0.125 0
-0.5 0.125 0
-0.375 0.125 0
-0.5 0.25 0
-0.375 0.25 0
-0.375 0.125 0
-0.25 0.125 0
-0.375 0.25 0
-0.25 0.25 0
-0.125 0.25 0
0 0.25 0
-0.125 0.375 0
0 0.375 0
-0.375 0.25 0
-0.25 0.25 0
-0.375 0.375 0
-0.25 0.375 0
-0.375 0.375 0
-0.25 0.375 0
-0.375 0.5 0
-0.25 0.5 0
-1 0.5 0
-0.875 0.5 0
-1 0.625 0
-0.875 0.625 0
-0.875 0.5 0
-0.75 0.5 0
-0.875 0.625 0
-0.75 0.625 0
-1 0.625 0
-0.875 0.625 0
-1 0.75 0
-0.875 0.75 0
-0.875 0.625 0
-0.75 0.625 0
-0.875 0.75 0
-0.75 0.75 0
-0.75 0.625 0
-0.625 0.625 0
-0.75 0.75 0
-0.625 0.75 0
-0.625 0.625 0
-0.5 0.625 0
-0.625 0.75 0
-0.5 0.75 0
-0.75 0.875 0
-0.625 0.875 0
-0.75 1 0
-0.625 1 0
0.75 -0.5 0
0.8125 -0.5 0
0.75 -0.4375 0
0.8125 -0.4375 0
0.8125 -0.5 0
0.875 -0.5 0
0.8125 -0.4375 0
0.875 -0.4375 0
0.75 -0.4375 0
0.8125 -0.4375 0
0.75 -0.375 0
0.8125 -0.375 0
0.8125 -0.4375 0
0.875 -0.4375 0
0.8125 -0.375 0
0.875 -0.375 0
0.75 -0.375 0
0.8125 -0.375 0
0.75 -0.3125 0
0.8125 -0.3125 0
0.8125 -0.375 0
0.875 -0.375 0
0.8125 -0.3125 0
0.875 -0.3125 0
0.75 -0.3125 0
0.8125 -0.3125 0
0.75 -0.25 0
0.8125 -0.25 0
0.8125 -0.3125 0
0.875 -0.3125 0
0.8125 -0.25 0
0.875 -0.25 0
0.875 -0.375 0
0.9375 -0.375 0
0.875 -0.3125 0
0.9375 -0.3125 0
0.9375 -0.375 0
1 -0.375 0
0.9375 -0.3125 0
1 -0.3125 0
0.875 -0.3125 0
0.9375 -0.3125 0
0.875 -0.25 0
0.9375 -0.25 0
0.9375 -0.3125 0
1 -0.3125 0
0.9375 -0.25 0
1 -0.25 0
0.5 -0.25 0
0.5625 -0.25 0
0.5 -0.1875 0
0.5625 -0.1875 0
0.5625 -0.25 0
0.625 -0.25 0
0.5625 -0.1875 0
0.625 -0.1875 0
0.5 -0.1875 0
0.5625 -0.1875 0
0.5 -0.125 0
0.5625 -0.125 0
0.5625 -0.1875 0
0.625 -0.1875 0
0.5625 -0.125 0
0.625 -0.125 0
0.625 -0.25 0
0.6875 -0.25 0
0.625 -0.1875 0
0.6875 -0.1875 0
0.6875 -0.25 0
0.75 -0.25 0
0.6875 -0.1875 0
0.75 -0.1875 0
0.625 -0.1875 0
0.6875 -0.1875 0
0.625 -0.125 0
0.6875 -0.125 0
0.6875 -0.1875 0
0.75 -0.1875 0
0.6875 -0.125 0
0.75 -0.125 0
0.625 -0.125 0
0.6875 -0.125 0
0.625 -0.0625 0
0.6875 -0.0625 0
0.6875 -0.125 0
0.75 -0.125 0
0.6875 -0.0625 0
0.75 -0.0625 0
0.625 -0.0625 0
0.6875 -0.0625 0
0.625 0 0
0.6875 0 0
0.6875 -0.0625 0
0.75 -0.0625 0
0.6875 0 0
0.75 0 0
0.75 -0.25 0
0.8125 -0.25 0
0.75 -0.1875 0
0.8125 -0.1875 0
0.8125 -0.25 0
0.875 -0.25 0
0.8125 -0.1875 0
0.875 -0.1875 0
0.75 -0.1875 0
0.8125 -0.1875 0
0.75 -0.125 0
0.8125 -0.125 0
0.8125 -0.1875 0
0.875 -0.1875 0
0.8125 -0.125 0
0.875 -0.125 0
0.875 -0.25 0
0.9375 -0.25 0
0.875 -0.1875 0
0.9375 -0.1875 0
0.9375 -0.25 0
1 -0.25 0
0.9375 -0.1875 0
1 -0.1875 0
0.875 -0.1875 0
0.9375 -0.1875 0
0.875 -0.125 0
0.9375 -0.125 0
0.9375 -0.1875 0
1 -0.1875 0
0.9375 -0.125 0
1 -0.125 0
0.75 -0.125 0
0.8125 -0.125 0
0.75 -0.0625 0
0.8125 -0.0625 0
0.8125 -0.125 0
0.875 -0.125 0
0.8125 -0.0625 0
0.875 -0.0625 0
0.75 -0.0625 0
0.8125 -0.0625 0
0.75 0 0
0.8125 0 0
0.8125 -0.0625 0
0.875 -0.0625 0
0.8125 0 0
0.875 0 0
0.5 -0.5 0
0.5625 -0.5 0
0.5 -0.4375 0
0.5625 -0.4375 0
0.5625 -0.5 0
0.625 -0.5 0
0.5625 -0.4375 0
0.625 -0.4375 0
0.5 -0.4375 0
0.5625 -0.4375 0
0.5 -0.375 0
0.5625 -0.375 0
0.5625 -0.4375 0
0.625 -0.4375 0
0.5625 -0.375 0
0.625 -0.375 0
0.625 -0.5 0
0.6875 -0.5 0
0.625 -0.4375 0
0.6875 -0.4375 0
0.6875 -0.5 0
0.75 -0.5 0
0.6875 -0.4375 0
0.75 -0.4375 0
0.625 -0.4375 0
0.6875 -0.4375 0
0.625 -0.375 0
0.6875 -0.375 0
0.6875 -0.4375 0
0.75 -0.4375 0
0.6875 -0.375 0
0.75 -0.375 0
0.5 -0.375 0
0.5625 -0.375 0
0.5 -0.3125 0
0.5625 -0.3125 0
0.5625 -0.375 0
0.625 -0.375 0
0.5625 -0.3125 0
0.625 -0.3125 0
0.5 -0.3125 0
0.5625 -0.3125 0
0.5 -0.25 0
0.5625 -0.25 0
0.5625 -0.3125 0
0.625 -0.3125 0
0.5625 -0.25 0
0.625 -0.25 0
0.625 -0.375 0
0.6875 -0.375 0
0.625 -0.3125 0
0.6875 -0.3125 0
0.6875 -0.375 0
0.75 -0.375 0
0.6875 -0.3125 0
0.75 -0.3125 0
0.625 -0.3125 0
0.6875 -0.3125 0
0.625 -0.25 0
0.6875 -0.25 0
0.6875 -0.3125 0
0.75 -0.3125 0
0.6875 -0.25 0
0.75 -0.25 0
0.875 -0.5 0
0.9375 -0.5 0
0.875 -0.4375 0
0.9375 -0.4375 0
0.9375 -0.5 0
1 -0.5 0
0.9375 -0.4375 0
1 -0.4375 0
0.875 -0.4375 0
0.9375 -0.4375 0
0.875 -0.375 0
0.9375 -0.375 0
0.9375 -0.4375 0
1 -0.4375 0
0.9375 -0.375 0
1 -0.375 0
0.5 -0.125 0
0.5625 -0.125 0
0.5 -0.0625 0
0.5625 -0.0625 0
0.5625 -0.125 0
0.625 -0.125 0
0.5625 -0.0625 0
0.625 -0.0625 0
0.5 -0.0625 0
0.5625 -0.0625 0
0.5 0 0
0.5625 0 0
0.5625 -0.0625 0
0.625 -0.0625 0
0.5625 0 0
0.625 0 0
0.875 -0.125 0
0.9375 -0.125 0
0.875 -0.0625 0
0.9375 -0.0625 0
0.9375 -0.125 0
1 -0.125 0
0.9375 -0.0625 0
1 -0.0625 0
0.875 -0.0625 0
0.9375 -0.0625 0
0.875 0 0
0.9375 0 0
0.9375 -0.0625 0
1 -0.0625 0
0.9375 0 0
1 0 0
0.625 -0.75 0
0.6875 -0.75 0
0.625 -0.6875 0
0.6875 -0.6875 0
0.6875 -0.75 0
0.75 -0.75 0
0.6875 -0.6875 0
0.75 -0.6875 0
0.625 -0.6875 0
0.6875 -0.6875 0
0.625 -0.625 0
0.6875 -0.625 0
0.6875 -0.6875 0
0.75 -0.6875 0
0.6875 -0.625 0
0.75 -0.625 0
0.625 -0.625 0
0.6875 -0.625 0
0.625 -0.5625 0
0.6875 -0.5625 0
0.6875 -0.625 0
0.75 -0.625 0
0.6875 -0.5625 0
0.75 -0.5625 0
0.625 -0.5625 0
0.6875 -0.5625 0
0.625 -0.5 0
0.6875 -0.5 0
0.6875 -0.5625 0
0.75 -0.5625 0
0.6875 -0.5 0
0.75 -0.5 0
0.75 -0.75 0
0.8125 -0.75 0
0.75 -0.6875 0
0.8125 -0.6875 0
0.8125 -0.75 0
0.875 -0.75 0
0.8125 -0.6875 0
0.875 -0.6875 0
0.75 -0.6875 0
0.8125 -0.6875 0
0.75 -0.625 0
0.8125 -0.625 0
0.8125 -0.6875 0
0.875 -0.6875 0
0.8125 -0.625 0
0.875 -0.625 0
0.75 -0.625 0
0.8125 -0.625 0
0.75 -0.5625 0
0.8125 -0.5625 0
0.8125 -0.625 0
0.875 -0.625 0
0.8125 -0.5625 0
0.875 -0.5625 0
0.75 -0.5625 0
0.8125 -0.5625 0
0.75 -0.5 0
0.8125 -0.5 0
0.8125 -0.5625 0
0.875 -0.5625 0
0.8125 -0.5 0
0.875 -0.5 0
0.25 -0.375 0
0.3125 -0.375 0
0.25 -0.3125 0
[...]
POINT_DATA 1824
SCALARS U double 1
LOOKUP_TABLE default
0 0 0 1.59043e-05 0 0 1.59043e-05 7.36677e-05 0 1.59043e-05 0 2.45286e-05 1.59043e-05 7.36677e-05 2.45286e-05 0.000119686 0 0 7.36677e-05 0.000240734 0 0 0.000240734 0.000600275 0 2.45286e-05 0 1.99858e-05 2.45286e-05 0.000119686 1.99858e-05 9.35853e-05 0 1.99858e-05 0 1.37423e-05 1.99858e-05 9.35853e-05 1.37423e-05 7.18755e-05 9.35853e-05 0.000299723 7.18755e-05 0.000158621 0 0 0.000600275 0.0010827 0 1.37423e-05 0 0.000220239 0.000531503 0 0.000715873 0 0.000715873 0 0.000804571 0 0.0006807 0.000793603 0 0 0.000793603 0.000841009 0 0 0.0010827 0.00125888 0.00145136 0.00170061 0.00145136 0.00170061 0.00163099 0.00190607 0.00170061 0.00179492 0.00190607 0.00201816 0 0 0.000705893 0.000657366 0 0 0.000657366 0.000511303 0.000705893 0.000657366 0.00133261 0.00124378 0.000657366 0.000511303 0.00124378 0.000967969 0 0 0.000511303 0.000280429 0 0 0.000280429 0 0.000511303 0.000280429 0.000967969 0.000531503 0.000280429 0 0.000531503 0 0.000913138 0.00127107 0.000878194 0.00121872 0.00127107 0.00163099 0.00121872 0.0015639 0.000878194 0.00121872 0.000703284 0.000965021 0.00121872 0.0015639 0.000965021 0.00123411 0.000703284 0.000965021 0.000410741 0.000537006 0.000965021 0.00123411 0.000537006 0.0006807 0.000537006 0.0006807 0 0 0 0 0.00054135 0.000665242 0 0 0.000665242 0.000705893 0.00054135 0.000665242 0.0010827 0.00125888 0.000665242 0.000705893 0.00125888 0.00133261 0.000600275 0.000841487 0.000815069 0.00113268 0.000841487 0.0010827 0.00113268 0.00145136 0.000815069 0.00113268 0.000913138 0.00127107 0.00113268 0.00145136 0.00127107 0.00163099 0.000376058 0.00060832 0.000369281 0.000588146 0.00060832 0.000913138 0.000588146 0.000878194 0.000369281 0.000588146 0.000299723 0.000481996 0.000588146 0.000878194 0.000481996 0.000703284 0.000299723 0.000481996 0.000229172 0.000311523 0.000481996 0.000703284 0.000311523 0.000410741 0.000229172 0.000311523 0.000158621 0.00016235 1.37423e-05 4.28089e-05 0.000116991 0.000147037 4.28089e-05 7.18755e-05 0.000147037 0.000227663 0.000116991 0.000147037 0.000220239 0.000555906 0.000147037 0.000227663 0.000555906 0.000927205 0.000240734 0.000420505 0.000336597 0.000542024 0.000420505 0.000600275 0.000542024 0.000815069 0.000336597 0.000542024 0.000376058 0.00060832 0.000542024 0.000815069 0.00060832 0.000913138 0 0.00011012 0 0.000132489 0.00011012 0.000220239 0.000132489 0.00054899 0 0.000132489 0 0.000202851 0.000132489 0.00054899 0.000202851 0.000915632 7.36677e-05 0.000157201 9.66766e-05 0.000191761 0.000157201 0.000240734 0.000191761 0.000336597 9.66766e-05 0.000191761 0.000119686 0.000215134 0.000191761 0.000336597 0.000215134 0.000376058 0.000119686 0.000215134 0.000106635 0.000214222 0.000215134 0.000376058 0.000214222 0.000369281 0.000106635 0.000214222 9.35853e-05 0.000196654 0.000214222 0.000369281 0.000196654 0.000299723 0.000220239 0.000555906 0.00054899 0.00147138 0.000555906 0.000927205 0.00147138 0.00268915 0.00054899 0.00147138 0.000915632 0.00268474 0.00147138 0.00268915 0.00268474 0.00659982 0.000158621 0.00016235 0.000305602 0.000203377 0.000305602 0.000203377 0.00116459 0.000749466 0.000203377 0 0.000749466 0 0 0.000269405 0 0.000167566 0.000269405 0.0011541 0.000167566 0.000730077 0 0.000167566 0 0 0.000167566 0.000730077 0 0 7.18755e-05 0.000115248 0.000227663 0.000301526 0.000115248 0.000158621 0.000301526 0.000305602 0.000227663 0.000301526 0.000927205 0.00116614 0.000301526 0.000305602 0.00116614 0.00116459 0.000749466 0 0.00263354 0 0.00116614 0.00116459 0.00369674 0.00377682 0.00369674 0.00377682 0.0103149 0.0107805 0 0.000202851 0 0.000271821 0.000202851 0.000915632 0.000271821 0.00115789 0 0.000271821 0 0.000269405 0.000271821 0.00115789 0.000269405 0.0011541 0.00115789 0.00369806 0.0011541 0.0037684 0.00369806 0.0103182 0.0037684 0.0107974 0.000730077 0.00262049 0 0 0.00145806 0.00115363 0.00145699 0.00115432 0.00115363 0.000804571 0.00115432 0.000799139 0.00145699 0.00115432 0.00139689 0.00110631 0.00115432 0.000799139 0.00110631 0.000766767 0.00139689 0.00110631 0.00127756 0.00101162 0.00110631 0.000766767 0.00101162 0.000701253 0.00127756 0.00101162 0.00110142 0.000872524 0.00101162 0.000701253 0.000872524 0.000604677 0.000766767 0.000392303 0.000701253 0.00035881 0.000392303 0 0.00035881 0 0.000701253 0.00035881 0.000604677 0.000309522 0.00035881 0 0.000309522 0 0.00151689 0.00149153 0.00120454 0.00118542 0.00149153 0.00141432 0.00118542 0.00112363 0.00120454 0.00118542 0.000841009 0.000822223 0.00118542 0.00112363 0.000822223 0.000780476 0.00141432 0.00128388 0.00112363 0.00101994 0.00128388 0.00110142 0.00101994 0.000875379 0.00112363 0.00101994 0.000780476 0.000708436 0.00101994 0.000875379 0.000708436 0.000607888 0.000780476 0.000708436 0.000399715 0.00036292 0.000708436 0.000607888 0.00036292 0.000311515 0.000399715 0.00036292 0 0 0.00036292 0.000311515 0 0 0.00110142 0.000872524 0.000875379 0.000693028 0.000872524 0.000604677 0.000693028 0.000480531 0.000875379 0.000693028 0.000607888 0.0004815 0.000693028 0.000480531 0.0004815 0.000333729 0.000604677 0.000309522 0.000480531 0.000245881 0.000309522 0 0.000245881 0 0.000480531 0.000245881 0.000333729 0.000170838 0.000245881 0 0.000170838 0 0.000607888 0.0004815 0.000311515 0.000246664 0.0004815 0.000333729 0.000246664 0.000171034 0.000311515 0.000246664 0 0 0.000246664 0.000171034 0 0 0.00201816 0.00197111 0.0020045 0.00197386 0.00197111 0.00187182 0.00197386 0.00187012 0.0020045 0.00197386 0.00192372 0.00189096 0.00197386 0.00187012 0.00189096 0.00179356 0.00187182 0.00169892 0.00187012 0.00169819 0.00169892 0.00145806 0.00169819 0.00145699 0.00187012 0.00169819 0.00179356 0.00162811 0.00169819 0.00145699 0.00162811 0.00139689 0.00192372 0.00189096 0.00175889 0.00172971 0.00189096 0.00179356 0.00172971 0.00164009 0.00175889 0.00172971 0.00151689 0.00149153 0.00172971 0.00164009 0.00149153 0.00141432 0.00179356 0.00162811 0.00164009 0.00148884 0.00162811 0.00139689 0.00148884 0.00127756 0.00164009 0.00148884 0.00141432 0.00128388 0.00148884 0.00127756 0.00128388 0.00110142 0.000804571 0.000402286 0.000799139 0.000408723 0.000402286 0 0.000408723 0 0.000799139 0.000408723 0.000766767 0.000392303 0.000408723 0 0.000392303 0 0.000841009 0.000822223 0.000420505 0.000420919 0.000822223 0.000780476 0.000420919 0.000399715 0.000420505 0.000420919 0 0 0.000420919 0.000399715 0 0 0.000333729 0.000170838 0.000171034 8.74814e-05 0.000170838 0 8.74814e-05 0 0.000171034 8.74814e-05 0 0 8.74814e-05 0 0 0 0.00124378 0.00110587 0.00147062 0.00133673 0.00110587 0.000967969 0.00133673 0.00114403 0.00147062 0.00133673 0.00166503 0.0015109 0.00133673 0.00114403 0.0015109 0.0012964 0.00166503 0.0015109 0.00180069 0.0016346 0.0015109 0.0012964 0.0016346 0.00140231 0.00180069 0.0016346 0.00187182 0.00169892 0.0016346 0.00140231 0.00169892 0.00145806 0.000967969 0.000749736 0.00114403 0.000907348 0.000749736 0.000531503 0.000907348 0.000623688 0.00114403 0.000907348 0.0012964 0.00102477 0.000907348 0.000623688 0.00102477 0.000715873 0.0012964 0.00102477 0.00140231 0.00111027 0.00102477 0.000715873 0.00111027 0.000760222 0.00140231 0.00111027 0.00145806 0.00115363 0.00111027 0.000760222 0.00115363 0.000804571 0.0015639 0.00169493 0.001399 0.00155315 0.00169493 0.00181718 0.00155315 0.00166115 0.001399 0.00155315 0.00123411 0.0013362 0.00155315 0.00166115 0.0013362 0.00143264 0.00181718 0.0018957 0.00166115 0.00173358 0.0018957 0.00192372 0.00173358 0.00175889 0.00166115 0.00173358 0.00143264 0.00149505 0.00173358 0.00175889 0.00149505 0.00151689 0.00123411 0.0013362 0.000957405 0.00106397 0.0013362 0.00143264 0.00106397 0.00113731 0.000957405 0.00106397 0.0006807 0.000737152 0.00106397 0.00113731 0.000737152 0.000793603 0.00143264 0.00149505 0.00113731 0.00118747 0.00149505 0.00151689 0.00118747 0.00120454 0.00113731 0.00118747 0.000793603 0.000817306 0.00118747 0.00120454 0.000817306 0.000841009 0.00133261 0.0012882 0.00157785 0.00155491 0.0012882 0.00124378 0.00155491 0.00147062 0.00157785 0.00155491 0.00179492 0.00175325 0.00155491 0.00147062 0.00175325 0.00166503 0.00179492 0.00175325 0.00190654 0.00189772 0.00175325 0.00166503 0.00189772 0.00180069 0.00190654 0.00189772 0.00201816 0.00197111 0.00189772 0.00180069 0.00197111 0.00187182 0.00116459 0.000957026 0.0024707 0.00194739 0.000957026 0.000749466 0.00194739 0.00169151 0.0024707 0.00194739 0.00377682 0.0036579 0.00194739 0.00169151 0.0036579 0.00263354 0.00377682 0.0036579 0.00727868 0.0060273 0.0036579 0.00263354 0.0060273 0.00465312 0.00727868 0.0060273 0.0107805 0.0100317 0.0060273 0.00465312 0.0100317 0.00789477 0.00163099 0.00176853 0.00159744 0.00177245 0.00176853 0.00190607 0.00177245 0.00189348 0.00159744 0.00177245 0.0015639 0.00169493 0.00177245 0.00189348 0.00169493 0.00181718 0.00190607 0.00196211 0.00189348 0.00197726 0.00196211 0.00201816 0.00197726 0.0020045 0.00189348 0.00197726 0.00181718 0.0018957 0.00197726 0.0020045 0.0018957 0.00192372 0.00263354 0.00131677 0.00465312 0.00254673 0.00131677 0 0.00254673 0 0.00465312 0.00254673 0.00789477 0.00483693 0.00254673 0 0.00483693 0 0.000927205 0.00104667 0.00180818 0.00197745 0.00104667 0.00116614 0.00197745 0.00243144 0.00180818 0.00197745 0.00268915 0.00355531 0.00197745 0.00243144 0.00355531 0.00369674 0.00125888 0.00129575 0.00147975 0.00155787 0.00129575 0.00133261 0.00155787 0.00157785 0.00147975 0.00155787 0.00170061 0.00174777 0.00155787 0.00157785 0.00174777 0.00179492 0.00268915 0.00355531 0.00464448 0.00559734 0.00355531 0.00369674 0.00559734 0.00700583 0.00464448 0.00559734 0.00659982 0.00911424 0.00559734 0.00700583 0.00911424 0.0103149 0.000915632 0.00180019 0.00103676 0.00197025 0.00180019 0.00268474 0.00197025 0.00354986 0.00103676 0.00197025 0.00115789 0.00242798 0.00197025 0.00354986 0.00242798 0.00369806 0.00268474 0.00464228 0.00354986 0.00559673 0.00464228 0.00659982 0.00559673 0.00911737 0.00354986 0.00559673 0.00369806 0.00700813 0.00559673 0.00911737 0.00700813 0.0103182 0.0011541 0.00246125 0.000942089 0.00194227 0.00246125 0.0037684 0.00194227 0.00362405 0.000942089 0.00194227 0.000730077 0.00167528 0.00194227 0.00362405 0.00167528 0.00262049 0.00262049 0.00462318 0.00131024 0.00254327 0.00462318 0.00791977 0.00254327 0.00482728 0.00131024 0.00254327 0 0 0.00254327 0.00482728 0 0 0.0037684 0.0072829 0.00362405 0.0060665 0.0072829 0.0107974 0.0060665 0.00998167 0.00362405 0.0060665 0.00262049 0.00462318 0.0060665 0.00998167 0.00462318 0.00791977 0.00659982 0.00911424 0.00911737 0.0122124 0.00911424 0.0103149 0.0122124 0.0141338 0.00911737 0.0122124 0.0103182 0.014141 0.0103149 0.0105477 0.0141338 0.0149658 0.0105477 0.0107805 0.0149658 0.0148436 0.0141338 0.0149658 0.0164288 0.0174616 0.0149658 0.0148436 0.0174616 0.0172807 0.0103182 0.014141 0.0105578 0.0149765 0.014141 0.0164288 0.0149765 0.0174638 0.0105578 0.0149765 0.0107974 0.0148461 0.0149765 0.0174638 0.0148461 0.0173203 0.000410741 0.000473873 0.00023449 0.000243587 0.000473873 0.000537006 0.000243587 0.000268503 0.00023449 0.000243587 0 0 0.000243587 0.000268503 0 0 0.0164288 0.0174616 0.0174638 0.0185651 0.0174616 0.0172807 0.0185651 0.0183881 0.0174638 0.0185651 0.0173203 0.0184258 0.0185651 0.0183881 0.0184258 0.0181897 0.0107805 0.0100317 0.0148436 0.0135737 0.00483693 0 0.00684656 0 0.000311523 0.000361132 0.000236936 0.000231146 0.000361132 0.000410741 0.000231146 0.00023449 0.000236936 0.000231146 0.00016235 0.00013958 0.000231146 0.00023449 0.00013958 0 0.0107974 0.0148461 0.00998167 0.0136168 0.0173203 0.0184258 0.0158511 0.0168469 0.00482728 0.00685071 0 0 0.00016235 0.00013958 0.000182863 8.99126e-05 0.00013958 0 8.99126e-05 0 0.000182863 8.99126e-05 0.000203377 0.000101688 8.99126e-05 0 0.000101688 0 0.00440087 0 0 0 0.0122124 0.0131731 0.0131767 0.0145999 0.0131731 0.0141338 0.0145999 0.0152813 0.0131767 0.0145999 0.014141 0.0152849 0.0145999 0.0152813 0.0152849 0.0164288 0.0100317 0.00896325 0.0118027 0.0110825 0.00896325 0.00789477 0.0110825 0.0096369 0.0118027 0.0110825 0.0135737 0.0125115 0.0110825 0.0096369 0.0125115 0.0110018 0.0148436 0.0142086 0.0160621 0.0157913 0.0142086 0.0135737 0.0157913 0.0148702 0.0160621 0.0157913 0.0172807 0.0166667 0.0157913 0.0148702 0.0166667 0.0157292 0.0135737 0.0125115 0.0148702 0.0138243 0.0125115 0.0110018 0.0138243 0.0121128 0.0148702 0.0138243 0.0157292 0.0145945 0.0138243 0.0121128 0.0145945 0.0127757 0.00789477 0.00636585 0.0096369 0.00813888 0.00636585 0.00483693 0.00813888 0.00584175 0.0096369 0.00813888 0.0110018 0.00921712 0.00813888 0.00584175 0.00921712 0.00684656 0.0110018 0.00921712 0.0121128 0.0102091 0.00921712 0.00684656 0.0102091 0.00732517 0.0121128 0.0102091 0.0127757 0.0107389 0.0102091 0.00732517 0.0107389 0.00773204 0.00684656 0.00342328 0.00732517 0.00423048 0.00342328 0 0.00423048 0 0.00732517 0.00423048 0.00773204 0.00442703 0.00423048 0 0.00442703 0 0.0172807 0.0166667 0.0178344 0.0174666 0.0166667 0.0157292 0.0174666 0.0164396 0.0178344 0.0174666 0.0183881 0.0177336 0.0174666 0.0164396 0.0177336 0.0167178 0.0157292 0.0145945 0.0164396 0.0152524 0.0145945 0.0127757 0.0152524 0.0133428 0.0164396 0.0152524 0.0167178 0.0155047 0.0152524 0.0133428 0.0155047 0.0135565 0.0183881 0.0177336 0.0182889 0.0179252 0.0177336 0.0167178 0.0179252 0.0168701 0.0182889 0.0179252 0.0181897 0.0176114 0.0179252 0.0168701 0.0176114 0.0166025 0.0167178 0.0155047 0.0168701 0.0156481 0.0155047 0.0135565 0.0156481 0.0136824 0.0168701 0.0156481 0.0166025 0.0154079 0.0156481 0.0136824 0.0154079 0.0134805 0.0127757 0.0107389 0.0133428 0.0112039 0.0107389 0.00773204 0.0112039 0.00805584 0.0133428 0.0112039 0.0135565 0.0113809 0.0112039 0.00805584 0.0113809 0.00817795 0.00773204 0.00442703 0.00805584 0.00460185 0.00442703 0 0.00460185 0 0.00805584 0.00460185 0.00817795 0.00466826 0.00460185 0 0.00466826 0 0.0135565 0.0113809 0.0136824 0.0114839 0.0113809 0.00817795 0.0114839 0.00825205 0.0136824 0.0114839 0.0134805 0.0113268 0.0114839 0.00825205 0.0113268 0.00814406 0.00817795 0.00466826 0.00825205 0.00470715 0.00466826 0 0.00470715 0 0.00825205 0.00470715 0.00814406 0.00465254 0.00470715 0 0.00465254 0 0.0148461 0.0160832 0.0142315 0.0157974 0.0160832 0.0173203 0.0157974 0.0165857 0.0142315 0.0157974 0.0136168 0.0148602 0.0157974 0.0165857 0.0148602 0.0158511 0.00998167 0.0117992 0.00895072 0.0111067 0.0117992 0.0136168 0.0111067 0.0125222 0.00895072 0.0111067 0.00791977 0.00965477 0.0111067 0.0125222 0.00965477 0.010995 0.0136168 0.0148602 0.0125222 0.0138363 0.0148602 0.0158511 0.0138363 0.014592 0.0125222 0.0138363 0.010995 0.0121194 0.0138363 0.014592 0.0121194 0.0127851 0.0184258 0.0183078 0.0176364 0.0179294 0.0183078 0.0181897 0.0179294 0.0176119 0.0176364 0.0179294 0.0168469 0.0168627 0.0179294 0.0176119 0.0168627 0.0166051 0.0158511 0.016349 0.014592 0.0152689 0.016349 0.0168469 0.0152689 0.0155017 0.014592 0.0152689 0.0127851 0.0133482 0.0152689 0.0155017 0.0133482 0.0135641 0.0168469 0.0168627 0.0155017 0.0156605 0.0168627 0.0166051 0.0156605 0.0154115 0.0155017 0.0156605 0.0135641 0.0136877 0.0156605 0.0154115 0.0136877 0.0134857 0.00791977 0.00965477 0.00637352 0.00812742 0.00965477 0.010995 0.00812742 0.00921192 0.00637352 0.00812742 0.00482728 0.005839 0.00812742 0.00921192 0.005839 0.00685071 0.010995 0.0121194 0.00921192 0.0102162 0.0121194 0.0127851 0.0102162 0.0107446 0.00921192 0.0102162 0.00685071 0.00733204 0.0102162 0.0107446 0.00733204 0.00773514 0.00685071 0.00733204 0.00342536 0.00423149 0.00733204 0.00773514 0.00423149 0.00442788 0.00342536 0.00423149 0 0 0.00423149 0.00442788 0 0 0.0127851 0.0133482 0.0107446 0.0112098 0.0133482 0.0135641 0.0112098 0.0113862 0.0107446 0.0112098 0.00773514 0.00806012 0.0112098 0.0113862 0.00806012 0.00818161 0.0135641 0.0136877 0.0113862 0.0114887 0.0136877 0.0134857 0.0114887 0.0113304 0.0113862 0.0114887 0.00818161 0.00825512 0.0114887 0.0113304 0.00825512 0.00814641 0.00773514 0.00806012 0.00442788 0.00460369 0.00806012 0.00818161 0.00460369 0.00466981 0.00442788 0.00460369 0 0 0.00460369 0.00466981 0 0 0.00818161 0.00825512 0.00466981 0.00470847 0.00825512 0.00814641 0.00470847 0.00465356 0.00466981 0.00470847 0 0 0.00470847 0.00465356 0 0 0.0181897 0.0176114 0.0176119 0.0171834 0.0176114 0.0166025 0.0171834 0.0161955 0.0176119 0.0171834 0.0166051 0.0161967 0.0171834 0.0161955 0.0161967 0.0152889 0.0166025 0.0154079 0.0161955 0.0150424 0.0154079 0.0134805 0.0150424 0.0131753 0.0161955 0.0150424 0.0152889 0.0142239 0.0150424 0.0131753 0.0142239 0.0124808 0.0166051 0.0161967 0.0154115 0.015045 0.0161967 0.0152889 0.015045 0.0142249 0.0154115 0.015045 0.0134857 0.0131781 0.015045 0.0142249 0.0131781 0.0124822 0.0152889 0.0142239 0.0142249 0.0132593 0.0142239 0.0124808 0.0132593 0.0116688 0.0142249 0.0132593 0.0124822 0.0116693 0.0132593 0.0116688 0.0116693 0.010308 0.0134805 0.0113268 0.0131753 0.0110843 0.0113268 0.00814406 0.0110843 0.00797995 0.0131753 0.0110843 0.0124808 0.0105328 0.0110843 0.00797995 0.0105328 0.00759987 0.00814406 0.00465254 0.00797995 0.00456731 0.00465254 0 0.00456731 0 0.00797995 0.00456731 0.00759987 0.00437131 0.00456731 0 0.00437131 0 0.0124808 0.0105328 0.0116688 0.00987969 0.0105328 0.00759987 0.00987969 0.00715267 0.0116688 0.00987969 0.010308 0.00877749 0.00987969 0.00715267 0.00877749 0.00638681 0.00759987 0.00437131 0.00715267 0.00413735 0.00437131 0 0.00413735 0 0.00715267 0.00413735 0.00638681 0.00373345 0.00413735 0 0.00373345 0 0.0134857 0.0131781 0.0113304 0.0110865 0.0131781 0.0124822 0.0110865 0.010534 0.0113304 0.0110865 0.00814641 0.00798145 0.0110865 0.010534 0.00798145 0.00760074 0.0124822 0.0116693 0.010534 0.0098802 0.0116693 0.010308 0.0098802 0.00877761 0.010534 0.0098802 0.00760074 0.00715311 0.0098802 0.00877761 0.00715311 0.00638697 0.00814641 0.00798145 0.00465356 0.00456796 0.00798145 0.00760074 0.00456796 0.00437169 0.00465356 0.00456796 0 0 0.00456796 0.00437169 0 0 0.00760074 0.00715311 0.00437169 0.00413755 0.00715311 0.00638697 0.00413755 0.00373351 0.00437169 0.00413755 0 0 0.00413755 0.00373351 0 0 0.010308 0.00877749 0.00877761 0.0075471 0.00877749 0.00638681 0.0075471 0.00549517 0.00877761 0.0075471 0.00638697 0.00549524 0.0075471 0.00549517 0.00549524 0.00440087 0.00638681 0.00373345 0.00549517 0.00328504 0.00373345 0 0.00328504 0 0.00549517 0.00328504 0.00440087 0.00220044 0.00328504 0 0.00220044 0 0.00638697 0.00549524 0.00373351 0.00328506 0.00549524 0.00440087 0.00328506 0.00220044 0.00373351 0.00328506 0 0 0.00328506 0.00220044 0 0 
