<?xml version="1.0" ?> 
<!-- 
# vtk DataFile Version 3.0
#This file was generated by the deal.II library on 21:46:44 at 2021/4/29
-->
<VTKFile type="UnstructuredGrid" version="0.1" byte_order="LittleEndian">
<UnstructuredGrid>
<Piece NumberOfPoints="65536" NumberOfCells="16384" >
  <Points>
    <DataArray type="Float32" NumberOfComponents="3" format="ascii">
-1 -1 0
-0.984375 -1 0
-1 -0.984375 0
-0.984375 -0.984375 0
-0.984375 -1 0
-0.96875 -1 0
-0.984375 -0.984375 0
-0.96875 -0.984375 0
-1 -0.984375 0
-0.984375 -0.984375 0
-1 -0.96875 0
-0.984375 -0.96875 0
-0.984375 -0.984375 0
-0.96875 -0.984375 0
-0.984375 -0.96875 0
-0.96875 -0.96875 0
-0.96875 -1 0
-0.953125 -1 0
-0.96875 -0.984375 0
-0.953125 -0.984375 0
-0.953125 -1 0
-0.9375 -1 0
-0.953125 -0.984375 0
-0.9375 -0.984375 0
-0.96875 -0.984375 0
-0.953125 -0.984375 0
-0.96875 -0.96875 0
-0.953125 -0.96875 0
-0.953125 -0.984375 0
-0.9375 -0.984375 0
-0.953125 -0.96875 0
-0.9375 -0.96875 0
-1 -0.96875 0
-0.984375 -0.96875 0
-1 -0.953125 0
-0.984375 -0.953125 0
-0.984375 -0.96875 0
-0.96875 -0.96875 0
-0.984375 -0.953125 0
-0.96875 -0.953125 0
-1 -0.953125 0
-0.984375 -0.953125 0
-1 -0.9375 0
-0.984375 -0.9375 0
-0.984375 -0.953125 0
-0.96875 -0.953125 0
-0.984375 -0.9375 0
-0.96875 -0.9375 0
-0.96875 -0.96875 0
-0.953125 -0.96875 0
-0.96875 -0.953125 0
-0.953125 -0.953125 0
-0.953125 -0.96875 0
-0.9375 -0.96875 0
-0.953125 -0.953125 0
-0.9375 -0.953125 0
-0.96875 -0.953125 0
-0.953125 -0.953125 0
-0.96875 -0.9375 0
-0.953125 -0.9375 0
-0.953125 -0.953125 0
-0.9375 -0.953125 0
-0.953125 -0.9375 0
-0.9375 -0.9375 0
-0.9375 -1 0
-0.921875 -1 0
-0.9375 -0.984375 0
-0.921875 -0.984375 0
-0.921875 -1 0
-0.90625 -1 0
-0.921875 -0.984375 0
-0.90625 -0.984375 0
-0.9375 -0.984375 0
-0.921875 -0.984375 0
-0.9375 -0.96875 0
-0.921875 -0.96875 0
-0.921875 -0.984375 0
-0.90625 -0.984375 0
-0.921875 -0.96875 0
-0.90625 -0.96875 0
-0.90625 -1 0
-0.890625 -1 0
-0.90625 -0.984375 0
-0.890625 -0.984375 0
-0.890625 -1 0
-0.875 -1 0
-0.890625 -0.984375 0
-0.875 -0.984375 0
-0.90625 -0.984375 0
-0.890625 -0.984375 0
-0.90625 -0.96875 0
-0.890625 -0.96875 0
-0.890625 -0.984375 0
-0.875 -0.984375 0
-0.890625 -0.96875 0
-0.875 -0.96875 0
-0.9375 -0.96875 0
-0.921875 -0.96875 0
-0.9375 -0.953125 0
-0.921875 -0.953125 0
-0.921875 -0.96875 0
-0.90625 -0.96875 0
-0.921875 -0.953125 0
-0.90625 -0.953125 0
-0.9375 -0.953125 0
-0.921875 -0.953125 0
-0.9375 -0.9375 0
-0.921875 -0.9375 0
-0.921875 -0.953125 0
-0.90625 -0.953125 0
-0.921875 -0.9375 0
-0.90625 -0.9375 0
-0.90625 -0.96875 0
-0.890625 -0.96875 0
-0.90625 -0.953125 0
-0.890625 -0.953125 0
-0.890625 -0.96875 0
-0.875 -0.96875 0
-0.890625 -0.953125 0
-0.875 -0.953125 0
-0.90625 -0.953125 0
-0.890625 -0.953125 0
-0.90625 -0.9375 0
-0.890625 -0.9375 0
-0.890625 -0.953125 0
-0.875 -0.953125 0
-0.890625 -0.9375 0
-0.875 -0.9375 0
-1 -0.9375 0
-0.984375 -0.9375 0
-1 -0.921875 0
-0.984375 -0.921875 0
-0.984375 -0.9375 0
-0.96875 -0.9375 0
-0.984375 -0.921875 0
-0.96875 -0.921875 0
-1 -0.921875 0
-0.984375 -0.921875 0
-1 -0.90625 0
-0.984375 -0.90625 0
-0.984375 -0.921875 0
-0.96875 -0.921875 0
-0.984375 -0.90625 0
-0.96875 -0.90625 0
-0.96875 -0.9375 0
-0.953125 -0.9375 0
-0.96875 -0.921875 0
-0.953125 -0.921875 0
-0.953125 -0.9375 0
-0.9375 -0.9375 0
-0.953125 -0.921875 0
-0.9375 -0.921875 0
-0.96875 -0.921875 0
-0.953125 -0.921875 0
-0.96875 -0.90625 0
-0.953125 -0.90625 0
-0.953125 -0.921875 0
-0.9375 -0.921875 0
-0.953125 -0.90625 0
-0.9375 -0.90625 0
-1 -0.90625 0
-0.984375 -0.90625 0
-1 -0.890625 0
-0.984375 -0.890625 0
-0.984375 -0.90625 0
-0.96875 -0.90625 0
-0.984375 -0.890625 0
-0.96875 -0.890625 0
-1 -0.890625 0
-0.984375 -0.890625 0
-1 -0.875 0
-0.984375 -0.875 0
-0.984375 -0.890625 0
-0.96875 -0.890625 0
-0.984375 -0.875 0
-0.96875 -0.875 0
-0.96875 -0.90625 0
-0.953125 -0.90625 0
-0.96875 -0.890625 0
-0.953125 -0.890625 0
-0.953125 -0.90625 0
-0.9375 -0.90625 0
-0.953125 -0.890625 0
-0.9375 -0.890625 0
-0.96875 -0.890625 0
-0.953125 -0.890625 0
-0.96875 -0.875 0
-0.953125 -0.875 0
-0.953125 -0.890625 0
-0.9375 -0.890625 0
-0.953125 -0.875 0
-0.9375 -0.875 0
-0.9375 -0.9375 0
-0.921875 -0.9375 0
-0.9375 -0.921875 0
-0.921875 -0.921875 0
-0.921875 -0.9375 0
-0.90625 -0.9375 0
-0.921875 -0.921875 0
-0.90625 -0.921875 0
-0.9375 -0.921875 0
-0.921875 -0.921875 0
-0.9375 -0.90625 0
-0.921875 -0.90625 0
-0.921875 -0.921875 0
-0.90625 -0.921875 0
-0.921875 -0.90625 0
-0.90625 -0.90625 0
-0.90625 -0.9375 0
-0.890625 -0.9375 0
-0.90625 -0.921875 0
-0.890625 -0.921875 0
-0.890625 -0.9375 0
-0.875 -0.9375 0
-0.890625 -0.921875 0
-0.875 -0.921875 0
-0.90625 -0.921875 0
-0.890625 -0.921875 0
-0.90625 -0.90625 0
-0.890625 -0.90625 0
-0.890625 -0.921875 0
-0.875 -0.921875 0
-0.890625 -0.90625 0
-0.875 -0.90625 0
-0.9375 -0.90625 0
-0.921875 -0.90625 0
-0.9375 -0.890625 0
-0.921875 -0.890625 0
-0.921875 -0.90625 0
-0.90625 -0.90625 0
-0.921875 -0.890625 0
-0.90625 -0.890625 0
-0.9375 -0.890625 0
-0.921875 -0.890625 0
-0.9375 -0.875 0
-0.921875 -0.875 0
-0.921875 -0.890625 0
-0.90625 -0.890625 0
-0.921875 -0.875 0
-0.90625 -0.875 0
-0.90625 -0.90625 0
-0.890625 -0.90625 0
-0.90625 -0.890625 0
-0.890625 -0.890625 0
-0.890625 -0.90625 0
-0.875 -0.90625 0
-0.890625 -0.890625 0
-0.875 -0.890625 0
-0.90625 -0.890625 0
-0.890625 -0.890625 0
-0.90625 -0.875 0
-0.890625 -0.875 0
-0.890625 -0.890625 0
-0.875 -0.890625 0
-0.890625 -0.875 0
-0.875 -0.875 0
-0.875 -1 0
-0.859375 -1 0
-0.875 -0.984375 0
-0.859375 -0.984375 0
-0.859375 -1 0
-0.84375 -1 0
-0.859375 -0.984375 0
-0.84375 -0.984375 0
-0.875 -0.984375 0
-0.859375 -0.984375 0
-0.875 -0.96875 0
-0.859375 -0.96875 0
-0.859375 -0.984375 0
-0.84375 -0.984375 0
-0.859375 -0.96875 0
-0.84375 -0.96875 0
-0.84375 -1 0
-0.828125 -1 0
-0.84375 -0.984375 0
-0.828125 -0.984375 0
-0.828125 -1 0
-0.8125 -1 0
-0.828125 -0.984375 0
-0.8125 -0.984375 0
-0.84375 -0.984375 0
-0.828125 -0.984375 0
-0.84375 -0.96875 0
-0.828125 -0.96875 0
-0.828125 -0.984375 0
-0.8125 -0.984375 0
-0.828125 -0.96875 0
-0.8125 -0.96875 0
-0.875 -0.96875 0
-0.859375 -0.96875 0
-0.875 -0.953125 0
-0.859375 -0.953125 0
-0.859375 -0.96875 0
-0.84375 -0.96875 0
-0.859375 -0.953125 0
-0.84375 -0.953125 0
-0.875 -0.953125 0
-0.859375 -0.953125 0
-0.875 -0.9375 0
-0.859375 -0.9375 0
-0.859375 -0.953125 0
-0.84375 -0.953125 0
-0.859375 -0.9375 0
-0.84375 -0.9375 0
-0.84375 -0.96875 0
-0.828125 -0.96875 0
-0.84375 -0.953125 0
-0.828125 -0.953125 0
-0.828125 -0.96875 0
-0.8125 -0.96875 0
-0.828125 -0.953125 0
-0.8125 -0.953125 0
-0.84375 -0.953125 0
-0.828125 -0.953125 0
-0.84375 -0.9375 0
-0.828125 -0.9375 0
-0.828125 -0.953125 0
-0.8125 -0.953125 0
-0.828125 -0.9375 0
-0.8125 -0.9375 0
-0.8125 -1 0
-0.796875 -1 0
-0.8125 -0.984375 0
-0.796875 -0.984375 0
-0.796875 -1 0
-0.78125 -1 0
-0.796875 -0.984375 0
-0.78125 -0.984375 0
-0.8125 -0.984375 0
-0.796875 -0.984375 0
-0.8125 -0.96875 0
-0.796875 -0.96875 0
-0.796875 -0.984375 0
-0.78125 -0.984375 0
-0.796875 -0.96875 0
-0.78125 -0.96875 0
-0.78125 -1 0
-0.765625 -1 0
-0.78125 -0.984375 0
-0.765625 -0.984375 0
-0.765625 -1 0
-0.75 -1 0
-0.765625 -0.984375 0
-0.75 -0.984375 0
-0.78125 -0.984375 0
-0.765625 -0.984375 0
-0.78125 -0.96875 0
-0.765625 -0.96875 0
-0.765625 -0.984375 0
-0.75 -0.984375 0
-0.765625 -0.96875 0
-0.75 -0.96875 0
-0.8125 -0.96875 0
-0.796875 -0.96875 0
-0.8125 -0.953125 0
-0.796875 -0.953125 0
-0.796875 -0.96875 0
-0.78125 -0.96875 0
-0.796875 -0.953125 0
-0.78125 -0.953125 0
-0.8125 -0.953125 0
-0.796875 -0.953125 0
-0.8125 -0.9375 0
-0.796875 -0.9375 0
-0.796875 -0.953125 0
-0.78125 -0.953125 0
-0.796875 -0.9375 0
-0.78125 -0.9375 0
-0.78125 -0.96875 0
-0.765625 -0.96875 0
-0.78125 -0.953125 0
-0.765625 -0.953125 0
-0.765625 -0.96875 0
-0.75 -0.96875 0
-0.765625 -0.953125 0
-0.75 -0.953125 0
-0.78125 -0.953125 0
-0.765625 -0.953125 0
-0.78125 -0.9375 0
-0.765625 -0.9375 0
-0.765625 -0.953125 0
-0.75 -0.953125 0
-0.765625 -0.9375 0
-0.75 -0.9375 0
-0.875 -0.9375 0
-0.859375 -0.9375 0
-0.875 -0.921875 0
-0.859375 -0.921875 0
-0.859375 -0.9375 0
-0.84375 -0.9375 0
-0.859375 -0.921875 0
-0.84375 -0.921875 0
-0.875 -0.921875 0
-0.859375 -0.921875 0
-0.875 -0.90625 0
-0.859375 -0.90625 0
-0.859375 -0.921875 0
-0.84375 -0.921875 0
-0.859375 -0.90625 0
-0.84375 -0.90625 0
-0.84375 -0.9375 0
-0.828125 -0.9375 0
-0.84375 -0.921875 0
-0.828125 -0.921875 0
-0.828125 -0.9375 0
-0.8125 -0.9375 0
-0.828125 -0.921875 0
-0.8125 -0.921875 0
-0.84375 -0.921875 0
-0.828125 -0.921875 0
-0.84375 -0.90625 0
-0.828125 -0.90625 0
-0.828125 -0.921875 0
-0.8125 -0.921875 0
-0.828125 -0.90625 0
-0.8125 -0.90625 0
-0.875 -0.90625 0
-0.859375 -0.90625 0
-0.875 -0.890625 0
-0.859375 -0.890625 0
-0.859375 -0.90625 0
-0.84375 -0.90625 0
-0.859375 -0.890625 0
-0.84375 -0.890625 0
-0.875 -0.890625 0
-0.859375 -0.890625 0
-0.875 -0.875 0
-0.859375 -0.875 0
-0.859375 -0.890625 0
-0.84375 -0.890625 0
-0.859375 -0.875 0
-0.84375 -0.875 0
-0.84375 -0.90625 0
-0.828125 -0.90625 0
-0.84375 -0.890625 0
-0.828125 -0.890625 0
-0.828125 -0.90625 0
-0.8125 -0.90625 0
-0.828125 -0.890625 0
-0.8125 -0.890625 0
-0.84375 -0.890625 0
-0.828125 -0.890625 0
-0.84375 -0.875 0
-0.828125 -0.875 0
-0.828125 -0.890625 0
-0.8125 -0.890625 0
-0.828125 -0.875 0
-0.8125 -0.875 0
-0.8125 -0.9375 0
-0.796875 -0.9375 0
-0.8125 -0.921875 0
-0.796875 -0.921875 0
-0.796875 -0.9375 0
-0.78125 -0.9375 0
-0.796875 -0.921875 0
-0.78125 -0.921875 0
-0.8125 -0.921875 0
-0.796875 -0.921875 0
-0.8125 -0.90625 0
-0.796875 -0.90625 0
-0.796875 -0.921875 0
-0.78125 -0.921875 0
-0.796875 -0.90625 0
-0.78125 -0.90625 0
-0.78125 -0.9375 0
-0.765625 -0.9375 0
-0.78125 -0.921875 0
-0.765625 -0.921875 0
-0.765625 -0.9375 0
-0.75 -0.9375 0
-0.765625 -0.921875 0
-0.75 -0.921875 0
-0.78125 -0.921875 0
-0.765625 -0.921875 0
-0.78125 -0.90625 0
-0.765625 -0.90625 0
-0.765625 -0.921875 0
-0.75 -0.921875 0
-0.765625 -0.90625 0
-0.75 -0.90625 0
-0.8125 -0.90625 0
-0.796875 -0.90625 0
-0.8125 -0.890625 0
-0.796875 -0.890625 0
-0.796875 -0.90625 0
[...]
  <PointData Scalars="scalars">
    <DataArray type="Float32" Name="U" format="ascii">
0 0 0 1.33117e-05 0 0 1.33117e-05 -0.000136328 0 1.33117e-05 0 8.83808e-05 1.33117e-05 -0.000136328 8.83808e-05 -0.00016457 0 0 -0.000136328 -0.000551702 0 0 -0.000551702 -0.00129325 -0.000136328 -0.000551702 -0.00016457 -0.00107169 -0.000551702 -0.00129325 -0.00107169 -0.00254838 0 8.83808e-05 0 0.000296002 8.83808e-05 -0.00016457 0.000296002 -4.28772e-05 0 0.000296002 0 0.000667307 0.000296002 -4.28772e-05 0.000667307 0.000284892 -0.00016457 -0.00107169 -4.28772e-05 -0.001474 -0.00107169 -0.00254838 -0.001474 -0.0038381 -4.28772e-05 -0.001474 0.000284892 -0.00176079 -0.001474 -0.0038381 -0.00176079 -0.00517486 0 0 -0.00129325 -0.00186097 0 0 -0.00186097 -0.00141491 -0.00129325 -0.00186097 -0.00254838 -0.00379258 -0.00186097 -0.00141491 -0.00379258 -0.00282189 0 0 -0.00141491 0.00114081 0 0 0.00114081 0.00546904 -0.00141491 0.00114081 -0.00282189 0.00208633 0.00114081 0.00546904 0.00208633 0.0107109 -0.00254838 -0.00379258 -0.0038381 -0.00575343 -0.00379258 -0.00282189 -0.00575343 -0.00438875 -0.0038381 -0.00575343 -0.00517486 -0.00786778 -0.00575343 -0.00438875 -0.00786778 -0.00622257 -0.00282189 0.00208633 -0.00438875 0.0028206 0.00208633 0.0107109 0.0028206 0.0152783 -0.00438875 0.0028206 -0.00622257 0.00304055 0.0028206 0.0152783 0.00304055 0.0188409 0 0.000667307 0 0.00122632 0.000667307 0.000284892 0.00122632 0.000885791 0 0.00122632 0 0.00197717 0.00122632 0.000885791 0.00197717 0.00174504 0.000284892 -0.00176079 0.000885791 -0.00189247 -0.00176079 -0.00517486 -0.00189247 -0.0064854 0.000885791 -0.00189247 0.00174504 -0.00182721 -0.00189247 -0.0064854 -0.00182721 -0.00779963 0 0.00197717 0 0.00289671 0.00197717 0.00174504 0.00289671 0.00286387 0 0.00289671 0 0.00390123 0.00289671 0.00286387 0.00390123 0.00412526 0.00174504 -0.00182721 0.00286387 -0.00154496 -0.00182721 -0.00779963 -0.00154496 -0.00905088 0.00286387 -0.00154496 0.00412526 -0.00114228 -0.00154496 -0.00905088 -0.00114228 -0.0103261 -0.00517486 -0.00786778 -0.0064854 -0.0101519 -0.00786778 -0.00622257 -0.0101519 -0.00830892 -0.0064854 -0.0101519 -0.00779963 -0.0125908 -0.0101519 -0.00830892 -0.0125908 -0.0108006 -0.00622257 0.00304055 -0.00830892 0.00261016 0.00304055 0.0188409 0.00261016 0.0212789 -0.00830892 0.00261016 -0.0108006 0.00145461 0.00261016 0.0212789 0.00145461 0.0223433 -0.00779963 -0.0125908 -0.00905088 -0.0151945 -0.0125908 -0.0108006 -0.0151945 -0.013744 -0.00905088 -0.0151945 -0.0103261 -0.0180843 -0.0151945 -0.013744 -0.0180843 -0.017342 -0.0108006 0.00145461 -0.013744 -0.000616935 0.00145461 0.0223433 -0.000616935 0.0218843 -0.013744 -0.000616935 -0.017342 -0.00382774 -0.000616935 0.0218843 -0.00382774 0.0197414 0 0 0.00546904 0.0099847 0 0 0.0099847 0.0122774 0.00546904 0.0099847 0.0107109 0.0193888 0.0099847 0.0122774 0.0193888 0.0241551 0 0 0.0122774 0.0123396 0 0 0.0123396 0.0121937 0.0122774 0.0123396 0.0241551 0.0242711 0.0123396 0.0121937 0.0242711 0.0245214 0.0107109 0.0193888 0.0152783 0.0279312 0.0193888 0.0241551 0.0279312 0.0349594 0.0152783 0.0279312 0.0188409 0.0349947 0.0279312 0.0349594 0.0349947 0.044242 0.0241551 0.0242711 0.0349594 0.0357372 0.0242711 0.0245214 0.0357372 0.0366735 0.0349594 0.0357372 0.044242 0.0462224 0.0357372 0.0366735 0.0462224 0.0485831 0 0 0.0121937 0.0148898 0 0 0.0148898 0.0199305 0.0121937 0.0148898 0.0245214 0.0297481 0.0148898 0.0199305 0.0297481 0.0399861 0 0 0.0199305 0.0243659 0 0 0.0243659 0.0243557 0.0199305 0.0243659 0.0399861 0.0483536 0.0243659 0.0243557 0.0483536 0.048696 0.0245214 0.0297481 0.0366735 0.0448706 0.0297481 0.0399861 0.0448706 0.0596976 0.0366735 0.0448706 0.0485831 0.0599813 0.0448706 0.0596976 0.0599813 0.0790327 0.0399861 0.0483536 0.0596976 0.0718996 0.0483536 0.048696 0.0718996 0.0722722 0.0596976 0.0718996 0.0790327 0.094527 0.0718996 0.0722722 0.094527 0.0950577 0.0188409 0.0349947 0.0212789 0.0402879 0.0349947 0.044242 0.0402879 0.0518445 0.0212789 0.0402879 0.0223433 0.0437756 0.0402879 0.0518445 0.0437756 0.0575954 0.044242 0.0462224 0.0518445 0.0555425 0.0462224 0.0485831 0.0555425 0.0603192 0.0518445 0.0555425 0.0575954 0.0638525 0.0555425 0.0603192 0.0638525 0.0718374 0.0223433 0.0437756 0.0218843 0.0452174 0.0437756 0.0575954 0.0452174 0.0613549 0.0218843 0.0452174 0.0197414 0.0446214 0.0452174 0.0613549 0.0446214 0.0632271 0.0575954 0.0638525 0.0613549 0.0708341 0.0638525 0.0718374 0.0708341 0.0829006 0.0613549 0.0708341 0.0632271 0.0766104 0.0708341 0.0829006 0.0766104 0.0935001 0.0485831 0.0599813 0.0603192 0.0750601 0.0599813 0.0790327 0.0750601 0.09806 0.0603192 0.0750601 0.0718374 0.0903634 0.0750601 0.09806 0.0903634 0.116707 0.0790327 0.094527 0.09806 0.116117 0.094527 0.0950577 0.116117 0.11707 0.09806 0.116117 0.116707 0.136892 0.116117 0.11707 0.136892 0.138212 0.0718374 0.0903634 0.0829006 0.105501 0.0903634 0.116707 0.105501 0.134866 0.0829006 0.105501 0.0935001 0.1204 0.105501 0.134866 0.1204 0.152405 0.116707 0.136892 0.134866 0.156731 0.136892 0.138212 0.156731 0.158638 0.134866 0.156731 0.152405 0.175522 0.156731 0.158638 0.175522 0.178138 0 0.00390123 0 0.00493175 0.00390123 0.00412526 0.00493175 0.00547295 0 0.00493175 0 0.00586486 0.00493175 0.00547295 0.00586486 0.00674238 0.00412526 -0.00114228 0.00547295 -0.000605526 -0.00114228 -0.0103261 -0.000605526 -0.0115495 0.00547295 -0.000605526 0.00674238 -7.70422e-05 -0.000605526 -0.0115495 -7.70422e-05 -0.012788 0 0.00586486 0 0.00660268 0.00586486 0.00674238 0.00660268 0.00778831 0 0.00660268 0 0.00700539 0.00660268 0.00778831 0.00700539 0.00840262 0.00674238 -7.70422e-05 0.00778831 0.000363318 -7.70422e-05 -0.012788 0.000363318 -0.0140774 0.00778831 0.000363318 0.00840262 0.000501348 0.000363318 -0.0140774 0.000501348 -0.015543 -0.0103261 -0.0180843 -0.0115495 -0.021187 -0.0180843 -0.017342 -0.021187 -0.0215973 -0.0115495 -0.021187 -0.012788 -0.0245707 -0.021187 -0.0215973 -0.0245707 -0.0265702 -0.017342 -0.00382774 -0.0215973 -0.00823751 -0.00382774 0.0197414 -0.00823751 0.0158708 -0.0215973 -0.00823751 -0.0265702 -0.0139017 -0.00823751 0.0158708 -0.0139017 0.0103905 -0.012788 -0.0245707 -0.0140774 -0.0282066 -0.0245707 -0.0265702 -0.0282066 -0.0323095 -0.0140774 -0.0282066 -0.015543 -0.0321707 -0.0282066 -0.0323095 -0.0321707 -0.0387975 -0.0265702 -0.0139017 -0.0323095 -0.0208622 -0.0139017 0.0103905 -0.0208622 0.00321002 -0.0323095 -0.0208622 -0.0387975 -0.0290675 -0.0208622 0.00321002 -0.0290675 -0.00544063 0 0.00700539 0 0.00699496 0.00700539 0.00840262 0.00699496 0.00846645 0 0.00699496 0 0.0064754 0.00699496 0.00846645 0.0064754 0.00780143 0.00840262 0.000501348 0.00846645 0.000247792 0.000501348 -0.015543 0.000247792 -0.0171874 0.00846645 0.000247792 0.00780143 -0.000600981 0.000247792 -0.0171874 -0.000600981 -0.0191638 0 0.0064754 0 0.00538355 0.0064754 0.00780143 0.00538355 0.00627038 0 0.00538355 0 0.00373308 0.00538355 0.00627038 0.00373308 0.00385706 0.00780143 -0.000600981 0.00627038 -0.00223628 -0.000600981 -0.0191638 -0.00223628 -0.0216275 0.00627038 -0.00223628 0.00385706 -0.00470655 -0.00223628 -0.0216275 -0.00470655 -0.0245838 -0.015543 -0.0321707 -0.0171874 -0.0363462 -0.0321707 -0.0387975 -0.0363462 -0.0458393 -0.0171874 -0.0363462 -0.0191638 -0.0407567 -0.0363462 -0.0458393 -0.0407567 -0.0533226 -0.0387975 -0.0290675 -0.0458393 -0.0382635 -0.0290675 -0.00544063 -0.0382635 -0.0153059 -0.0458393 -0.0382635 -0.0533226 -0.0482339 -0.0382635 -0.0153059 -0.0482339 -0.026125 -0.0191638 -0.0407567 -0.0216275 -0.0454268 -0.0407567 -0.0533226 -0.0454268 -0.0610991 -0.0216275 -0.0454268 -0.0245838 -0.0501894 -0.0454268 -0.0610991 -0.0501894 -0.0687847 -0.0533226 -0.0482339 -0.0610991 -0.0587169 -0.0482339 -0.026125 -0.0587169 -0.0376183 -0.0610991 -0.0587169 -0.0687847 -0.0691817 -0.0587169 -0.0376183 -0.0691817 -0.0492709 0.0197414 0.0446214 0.0158708 0.0420069 0.0446214 0.0632271 0.0420069 0.0632267 0.0158708 0.0420069 0.0103905 0.0376815 0.0420069 0.0632267 0.0376815 0.0618183 0.0632271 0.0766104 0.0632267 0.0810601 0.0766104 0.0935001 0.0810601 0.103373 0.0632267 0.0810601 0.0618183 0.0845699 0.0810601 0.103373 0.0845699 0.112717 0.0103905 0.0376815 0.00321002 0.0316411 0.0376815 0.0618183 0.0316411 0.058881 0.00321002 0.0316411 -0.00544063 0.0242207 0.0316411 0.058881 0.0242207 0.0548966 0.0618183 0.0845699 0.058881 0.0868964 0.0845699 0.112717 0.0868964 0.121042 0.058881 0.0868964 0.0548966 0.0883895 0.0868964 0.121042 0.0883895 0.128602 0.0935001 0.1204 0.103373 0.134804 0.1204 0.152405 0.134804 0.169351 0.103373 0.134804 0.112717 0.14873 0.134804 0.169351 0.14873 0.185609 0.152405 0.175522 0.169351 0.19361 0.175522 0.178138 0.19361 0.197249 0.169351 0.19361 0.185609 0.210834 0.19361 0.197249 0.210834 0.215556 0.112717 0.14873 0.121042 0.161743 0.14873 0.185609 0.161743 0.200981 0.121042 0.161743 0.128602 0.173881 0.161743 0.200981 0.173881 0.215503 0.185609 0.210834 0.200981 0.227382 0.210834 0.215556 0.227382 0.233453 0.200981 0.227382 0.215503 0.243132 0.227382 0.233453 0.243132 0.250699 -0.00544063 0.0242207 -0.0153059 0.0156867 0.0242207 0.0548966 0.0156867 0.0500211 -0.0153059 0.0156867 -0.026125 0.00629564 0.0156867 0.0500211 0.00629564 0.0444652 0.0548966 0.0883895 0.0500211 0.0890819 0.0883895 0.128602 0.0890819 0.135218 0.0500211 0.0890819 0.0444652 0.089072 0.0890819 0.135218 0.089072 0.140893 -0.026125 0.00629564 -0.0376183 -0.00372582 0.00629564 0.0444652 -0.00372582 0.0383764 -0.0376183 -0.00372582 -0.0492709 -0.0140099 -0.00372582 0.0383764 -0.0140099 0.0319403 0.0444652 0.089072 0.0383764 0.0884631 0.089072 0.140893 0.0884631 0.145688 0.0383764 0.0884631 0.0319403 0.0872817 0.0884631 0.145688 0.0872817 0.149553 0.128602 0.173881 0.135218 0.184963 0.173881 0.215503 0.184963 0.229012 0.135218 0.184963 0.140893 0.194882 0.184963 0.229012 0.194882 0.241406 0.215503 0.243132 0.229012 0.258096 0.243132 0.250699 0.258096 0.267247 0.229012 0.258096 0.241406 0.27211 0.258096 0.267247 0.27211 0.282961 0.140893 0.194882 0.145688 0.20372 0.194882 0.241406 0.20372 0.252721 0.145688 0.20372 0.149553 0.211353 0.20372 0.252721 0.211353 0.262861 0.241406 0.27211 0.252721 0.28521 0.27211 0.282961 0.28521 0.297767 0.252721 0.28521 0.262861 0.297292 0.28521 0.297767 0.297292 0.311719 0 0 0.0243557 0.0201598 0 0 0.0201598 0.0141303 0.0243557 0.0201598 0.048696 0.0402595 0.0201598 0.0141303 0.0402595 0.0288075 0 0 0.0141303 0.00932515 0 0 0.00932515 0.00578991 0.0141303 0.00932515 0.0288075 0.018982 0.00932515 0.00578991 0.018982 0.0120133 0.048696 0.0402595 0.0722722 0.0604105 0.0402595 0.0288075 0.0604105 0.0437511 0.0722722 0.0604105 0.0950577 0.0804272 0.0604105 0.0437511 0.0804272 0.0593874 0.0288075 0.018982 0.0437511 0.0294233 0.018982 0.0120133 0.0294233 0.0186489 0.0437511 0.0294233 0.0593874 0.0407568 0.0294233 0.0186489 0.0407568 0.0260174 0 0 0.00578991 0.00280018 0 0 0.00280018 -0.000797895 0.00578991 0.00280018 0.0120133 0.0056417 0.00280018 -0.000797895 0.0056417 -0.00161496 0 0 -0.000797895 -0.00537644 0 0 -0.00537644 -0.0111251 -0.000797895 -0.00537644 -0.00161496 -0.0108651 -0.00537644 -0.0111251 -0.0108651 -0.0225405 0.0120133 0.0056417 0.0186489 0.00889804 0.0056417 -0.00161496 0.00889804 -0.00232201 0.0186489 0.00889804 0.0260174 0.012472 0.00889804 -0.00232201 0.012472 -0.00294669 -0.00161496 -0.0108651 -0.00232201 -0.0164452 -0.0108651 -0.0225405 -0.0164452 -0.0341938 -0.00232201 -0.0164452 -0.00294669 -0.0220939 -0.0164452 -0.0341938 -0.0220939 -0.0459598 0.0950577 0.0804272 0.11707 0.100297 0.0804272 0.0593874 0.100297 0.0758773 0.11707 0.100297 0.138212 0.120268 0.100297 0.0758773 0.120268 0.0932157 0.0593874 0.0407568 0.0758773 0.0531365 0.0407568 0.0260174 0.0531365 0.0344185 0.0758773 0.0531365 0.0932157 0.0668422 0.0531365 0.0344185 0.0668422 0.0439049 0.138212 0.120268 0.158638 0.140281 0.120268 0.0932157 0.140281 0.111356 0.158638 0.140281 0.178138 0.160054 0.140281 0.111356 0.160054 0.130056 0.0932157 0.0668422 0.111356 0.0816312 0.0668422 0.0439049 0.0816312 0.0543755 0.111356 0.0816312 0.130056 0.0974815 0.0816312 0.0543755 0.0974815 0.0661695 0.0260174 0.012472 0.0344185 0.0167416 0.012472 -0.00294669 0.0167416 -0.00310617 0.0344185 0.0167416 0.0439049 0.0217801 0.0167416 -0.00310617 0.0217801 -0.00295809 -0.00294669 -0.0220939 -0.00310617 -0.0276731 -0.0220939 -0.0459598 -0.0276731 -0.0581532 -0.00310617 -0.0276731 -0.00295809 -0.0334801 -0.0276731 -0.0581532 -0.0334801 -0.070765 0.0439049 0.0217801 0.0543755 0.0277241 0.0217801 -0.00295809 0.0277241 -0.00217832 0.0543755 0.0277241 0.0661695 0.0349328 0.0277241 -0.00217832 0.0349328 -0.000431532 -0.00295809 -0.0334801 -0.00217832 -0.0388688 -0.0334801 -0.070765 -0.0388688 -0.0834545 -0.00217832 -0.0388688 -0.000431532 -0.044 -0.0388688 -0.0834545 -0.044 -0.0962227 0 0 -0.0111251 -0.0176551 0 0 -0.0176551 -0.0232893 -0.0111251 -0.0176551 -0.0225405 -0.035447 -0.0176551 -0.0232893 -0.035447 -0.0472843 0 0 -0.0232893 -0.0280135 0 0 -0.0280135 -0.0323205 -0.0232893 -0.0280135 -0.0472843 -0.0564195 -0.0280135 -0.0323205 -0.0564195 -0.0655454 -0.0225405 -0.035447 -0.0341938 -0.053935 -0.035447 -0.0472843 -0.053935 -0.0716879 -0.0341938 -0.053935 -0.0459598 -0.0724738 -0.053935 -0.0716879 -0.0724738 -0.0964264 -0.0472843 -0.0564195 -0.0716879 -0.0856021 -0.0564195 -0.0655454 -0.0856021 -0.0984166 -0.0716879 -0.0856021 -0.0964264 -0.115265 -0.0856021 -0.0984166 -0.115265 -0.131789 0 0 -0.0323205 -0.0378672 0 0 -0.0378672 -0.0418887 -0.0323205 -0.0378672 -0.0655454 -0.0754594 -0.0378672 -0.0418887 -0.0754594 -0.0836456 0 0 -0.0418887 -0.0424289 0 0 -0.0424289 -0.0387576 -0.0418887 -0.0424289 -0.0836456 -0.0840198 -0.0424289 -0.0387576 -0.0840198 -0.0776868 -0.0655454 -0.0754594 -0.0984166 -0.112711 -0.0754594 -0.0836456 -0.112711 -0.124141 -0.0984166 -0.112711 -0.131789 -0.149372 -0.112711 -0.124141 -0.149372 -0.163267 -0.0836456 -0.0840198 -0.124141 -0.125589 -0.0840198 -0.0776868 -0.125589 -0.116966 -0.124141 -0.125589 -0.163267 -0.165892 -0.125589 -0.116966 -0.165892 -0.156419 -0.0459598 -0.0724738 -0.0581532 -0.0916867 -0.0724738 -0.0964264 -0.0916867 -0.122101 -0.0581532 -0.0916867 -0.070765 -0.111455 -0.0916867 -0.122101 -0.111455 -0.148001 -0.0964264 -0.115265 -0.122101 -0.145544 -0.115265 -0.131789 -0.145544 -0.165378 -0.122101 -0.145544 -0.148001 -0.176342 -0.145544 -0.165378 -0.176342 -0.199084 -0.070765 -0.111455 -0.0834545 -0.131213 -0.111455 -0.148001 -0.131213 -0.174033 -0.0834545 -0.131213 -0.0962227 -0.151041 -0.131213 -0.174033 -0.151041 -0.19953 -0.148001 -0.176342 -0.174033 -0.206982 -0.176342 -0.199084 -0.206982 -0.232695 -0.174033 -0.206982 -0.19953 -0.237009 -0.206982 -0.232695 -0.237009 -0.265716 -0.131789 -0.149372 -0.165378 -0.185077 -0.149372 -0.163267 -0.185077 -0.201123 -0.165378 -0.185077 -0.199084 -0.22046 -0.185077 -0.201123 -0.22046 -0.237546 -0.163267 -0.165892 -0.201123 -0.205168 -0.165892 -0.156419 -0.205168 -0.196123 -0.201123 -0.205168 -0.237546 -0.243217 -0.205168 -0.196123 -0.243217 -0.235666 -0.199084 -0.22046 -0.232695 -0.255161 -0.22046 -0.237546 -0.255161 -0.272986 -0.232695 -0.255161 -0.265716 -0.289495 -0.255161 -0.272986 -0.289495 -0.30783 -0.237546 -0.243217 -0.272986 -0.280498 -0.243217 -0.235666 -0.280498 -0.275166 -0.272986 -0.280498 -0.30783 -0.317032 -0.280498 -0.275166 -0.317032 -0.31433 0.178138 0.160054 0.197249 0.179943 0.160054 0.130056 0.179943 0.149362 0.197249 0.179943 0.215556 0.199405 0.179943 0.149362 0.199405 0.168644 0.130056 0.0974815 0.149362 0.114039 0.0974815 0.0661695 0.114039 0.078735 0.149362 0.114039 0.168644 0.131142 0.114039 0.078735 0.131142 0.0921877 0.215556 0.199405 0.233453 0.218746 0.199405 0.168644 0.218746 0.188049 0.233453 0.218746 0.250699 0.237514 0.218746 0.188049 0.237514 0.207163 0.168644 0.131142 0.188049 0.148571 0.131142 0.0921877 0.148571 0.10623 0.188049 0.148571 0.207163 0.166135 0.148571 0.10623 0.166135 0.120842 0.0661695 0.0349328 0.078735 0.0428076 0.0349328 -0.000431532 0.0428076 0.00191253 0.078735 0.0428076 0.0921877 0.051875 0.0428076 0.00191253 0.051875 0.00508704 -0.000431532 -0.044 0.00191253 -0.0488184 -0.044 -0.0962227 -0.0488184 -0.108728 0.00191253 -0.0488184 0.00508704 -0.0531347 -0.0488184 -0.108728 -0.0531347 -0.121099 0.0921877 0.051875 0.10623 0.0615655 0.051875 0.00508704 0.0615655 0.0089861 0.10623 0.0615655 0.120842 0.0719591 0.0615655 0.0089861 0.0719591 0.0134242 0.00508704 -0.0531347 0.0089861 -0.056759 -0.0531347 -0.121099 -0.056759 -0.132349 0.0089861 -0.056759 0.0134242 -0.0598407 -0.056759 -0.132349 -0.0598407 -0.142842 0.250699 0.237514 0.267247 0.255633 0.237514 0.207163 0.255633 0.225709 0.267247 0.255633 0.282961 0.272917 0.255633 0.225709 0.272917 0.243636 0.207163 0.166135 0.225709 0.183478 0.166135 0.120842 0.183478 0.135475 0.225709 0.183478 0.243636 0.200559 0.183478 0.135475 0.200559 0.150118 0.282961 0.272917 0.297767 0.289329 0.272917 0.243636 0.289329 0.260899 0.297767 0.289329 0.311719 0.304943 0.289329 0.260899 0.304943 0.27765 0.243636 0.200559 0.260899 0.217509 0.200559 0.150118 0.217509 0.164918 0.260899 0.217509 0.27765 0.23417 0.217509 0.164918 0.23417 0.179504 0.120842 0.0719591 0.135475 0.0824212 0.0719591 0.0134242 0.0824212 0.0179043 0.135475 0.0824212 0.150118 0.0928007 0.0824212 0.0179043 0.0928007 0.022302 0.0134242 -0.0598407 0.0179043 -0.062531 -0.0598407 -0.142842 -0.062531 -0.152241 0.0179043 -0.062531 0.022302 -0.0647309 -0.062531 -0.152241 -0.0647309 -0.160203 0.150118 0.0928007 0.164918 0.103311 0.0928007 0.022302 0.103311 0.0267565 0.164918 0.103311 0.179504 0.113242 0.103311 0.0267565 0.113242 0.0307224 0.022302 -0.0647309 0.0267565 -0.0663856 -0.0647309 -0.160203 -0.0663856 -0.166779 0.0267565 -0.0663856 0.0307224 -0.0677837 -0.0663856 -0.166779 -0.0677837 -0.171842 -0.0962227 -0.151041 -0.108728 -0.170438 -0.151041 -0.19953 -0.170438 -0.224316 -0.108728 -0.170438 -0.121099 -0.189245 -0.170438 -0.224316 -0.189245 -0.247995 -0.19953 -0.237009 -0.224316 -0.266285 -0.237009 -0.265716 -0.266285 -0.298267 -0.224316 -0.266285 -0.247995 -0.294064 -0.266285 -0.298267 -0.294064 -0.329657 -0.121099 -0.189245 -0.132349 -0.206672 -0.189245 -0.247995 -0.206672 -0.270012 -0.132349 -0.206672 -0.142842 -0.222838 -0.206672 -0.270012 -0.222838 -0.290586 -0.247995 -0.294064 -0.270012 -0.320542 -0.294064 -0.329657 -0.320542 -0.360286 -0.270012 -0.320542 -0.290586 -0.345544 -0.320542 -0.360286 -0.345544 -0.389865 -0.265716 -0.289495 -0.298267 -0.32337 -0.289495 -0.30783 -0.32337 -0.341997 -0.298267 -0.32337 -0.329657 -0.356793 -0.32337 -0.341997 -0.356793 -0.376031 -0.30783 -0.317032 -0.341997 -0.352425 -0.317032 -0.31433 -0.352425 -0.352456 -0.341997 -0.352425 -0.376031 -0.38767 -0.352425 -0.352456 -0.38767 -0.389815 -0.329657 -0.356793 -0.360286 -0.390067 -0.356793 -0.376031 -0.390067 -0.410223 -0.360286 -0.390067 -0.389865 -0.42286 -0.390067 -0.410223 -0.42286 -0.444384 -0.376031 -0.38767 -0.410223 -0.422654 -0.38767 -0.389815 -0.422654 -0.426637 -0.410223 -0.422654 -0.444384 -0.457513 -0.422654 -0.426637 -0.457513 -0.462476 -0.142842 -0.222838 -0.152241 -0.237421 -0.222838 -0.290586 -0.237421 -0.309504 -0.152241 -0.237421 -0.160203 -0.249928 -0.237421 -0.309504 -0.249928 -0.326564 -0.290586 -0.345544 -0.309504 -0.369192 -0.345544 -0.389865 -0.369192 -0.418299 -0.309504 -0.369192 -0.326564 -0.391387 -0.369192 -0.418299 -0.391387 -0.445636 -0.160203 -0.249928 -0.166779 -0.260638 -0.249928 -0.326564 -0.260638 -0.341931 -0.166779 -0.260638 -0.171842 -0.269295 -0.260638 -0.341931 -0.269295 -0.355564 -0.326564 -0.391387 -0.341931 -0.412269 -0.391387 -0.445636 -0.412269 -0.471464 -0.341931 -0.412269 -0.355564 -0.431872 -0.412269 -0.471464 -0.431872 -0.495966 -0.389865 -0.42286 -0.418299 -0.454829 -0.42286 -0.444384 -0.454829 -0.478056 -0.418299 -0.454829 -0.445636 -0.485789 -0.454829 -0.478056 -0.485789 -0.511024 -0.444384 -0.457513 -0.478056 -0.491865 -0.457513 -0.462476 -0.491865 -0.497377 -0.478056 -0.491865 -0.511024 -0.525556 -0.491865 -0.497377 -0.525556 -0.531065 -0.445636 -0.485789 -0.471464 -0.515281 -0.485789 -0.511024 -0.515281 -0.542619 -0.471464 -0.