# vtk DataFile Version 3.0
#This file was generated by the deal.II library on 2021/4/23 at 0:45:41
ASCII
DATASET UNSTRUCTURED_GRID

FIELD FieldData 2
CYCLE 1 1 int
70
TIME 1 1 double
0.14
POINTS 2772 double
-1 -1 0
-0.75 -1 0
-1 -0.75 0
-0.75 -0.75 0
-0.75 -1 0
-0.5 -1 0
-0.75 -0.75 0
-0.5 -0.75 0
-1 -0.75 0
-0.75 -0.75 0
-1 -0.5 0
-0.75 -0.5 0
-0.75 -0.75 0
-0.5 -0.75 0
-0.75 -0.5 0
-0.5 -0.5 0
-0.5 -1 0
-0.25 -1 0
-0.5 -0.75 0
-0.25 -0.75 0
-0.25 -1 0
0 -1 0
-0.25 -0.75 0
0 -0.75 0
-0.5 -0.75 0
-0.25 -0.75 0
-0.5 -0.5 0
-0.25 -0.5 0
-0.25 -0.75 0
0 -0.75 0
-0.25 -0.5 0
0 -0.5 0
-1 -0.5 0
-0.75 -0.5 0
-1 -0.25 0
-0.75 -0.25 0
-0.75 -0.5 0
-0.5 -0.5 0
-0.75 -0.25 0
-0.5 -0.25 0
-1 -0.25 0
-0.75 -0.25 0
-1 0 0
-0.75 0 0
-0.75 -0.25 0
-0.5 -0.25 0
-0.75 0 0
-0.5 0 0
-0.5 -0.5 0
-0.25 -0.5 0
-0.5 -0.25 0
-0.25 -0.25 0
-0.25 -0.5 0
0 -0.5 0
-0.25 -0.25 0
0 -0.25 0
-0.5 -0.25 0
-0.25 -0.25 0
-0.5 0 0
-0.25 0 0
0 -1 0
0.25 -1 0
0 -0.75 0
0.25 -0.75 0
0.25 -1 0
0.5 -1 0
0.25 -0.75 0
0.5 -0.75 0
0 -0.75 0
0.25 -0.75 0
0 -0.5 0
0.25 -0.5 0
0.5 -1 0
0.75 -1 0
0.5 -0.75 0
0.75 -0.75 0
0.75 -1 0
1 -1 0
0.75 -0.75 0
1 -0.75 0
0 -0.5 0
0.25 -0.5 0
0 -0.25 0
0.25 -0.25 0
-1 0 0
-0.75 0 0
-1 0.25 0
-0.75 0.25 0
0.5 -0.5 0
0.625 -0.5 0
0.5 -0.375 0
0.625 -0.375 0
0.625 -0.5 0
0.75 -0.5 0
0.625 -0.375 0
0.75 -0.375 0
0.5 -0.375 0
0.625 -0.375 0
0.5 -0.25 0
0.625 -0.25 0
0.625 -0.375 0
0.75 -0.375 0
0.625 -0.25 0
0.75 -0.25 0
0.75 -0.5 0
0.875 -0.5 0
0.75 -0.375 0
0.875 -0.375 0
0.875 -0.5 0
1 -0.5 0
0.875 -0.375 0
1 -0.375 0
0.75 -0.375 0
0.875 -0.375 0
0.75 -0.25 0
0.875 -0.25 0
0.875 -0.375 0
1 -0.375 0
0.875 -0.25 0
1 -0.25 0
0.5 -0.25 0
0.625 -0.25 0
0.5 -0.125 0
0.625 -0.125 0
0.625 -0.25 0
0.75 -0.25 0
0.625 -0.125 0
0.75 -0.125 0
0.5 -0.125 0
0.625 -0.125 0
0.5 0 0
0.625 0 0
0.625 -0.125 0
0.75 -0.125 0
0.625 0 0
0.75 0 0
0.75 -0.25 0
0.875 -0.25 0
0.75 -0.125 0
0.875 -0.125 0
0.875 -0.25 0
1 -0.25 0
0.875 -0.125 0
1 -0.125 0
0.75 -0.125 0
0.875 -0.125 0
0.75 0 0
0.875 0 0
0.875 -0.125 0
1 -0.125 0
0.875 0 0
1 0 0
0.5 -0.75 0
0.625 -0.75 0
0.5 -0.625 0
0.625 -0.625 0
0.625 -0.75 0
0.75 -0.75 0
0.625 -0.625 0
0.75 -0.625 0
0.5 -0.625 0
0.625 -0.625 0
0.5 -0.5 0
0.625 -0.5 0
0.625 -0.625 0
0.75 -0.625 0
0.625 -0.5 0
0.75 -0.5 0
0.75 -0.75 0
0.875 -0.75 0
0.75 -0.625 0
0.875 -0.625 0
0.875 -0.75 0
1 -0.75 0
0.875 -0.625 0
1 -0.625 0
0.75 -0.625 0
0.875 -0.625 0
0.75 -0.5 0
0.875 -0.5 0
0.875 -0.625 0
1 -0.625 0
0.875 -0.5 0
1 -0.5 0
0.25 -0.5 0
0.375 -0.5 0
0.25 -0.375 0
0.375 -0.375 0
0.375 -0.5 0
0.5 -0.5 0
0.375 -0.375 0
0.5 -0.375 0
0.25 -0.375 0
0.375 -0.375 0
0.25 -0.25 0
0.375 -0.25 0
0.375 -0.375 0
0.5 -0.375 0
0.375 -0.25 0
0.5 -0.25 0
0.25 -0.25 0
0.375 -0.25 0
0.25 -0.125 0
0.375 -0.125 0
0.375 -0.25 0
0.5 -0.25 0
0.375 -0.125 0
0.5 -0.125 0
0.25 -0.125 0
0.375 -0.125 0
0.25 0 0
0.375 0 0
0.375 -0.125 0
0.5 -0.125 0
0.375 0 0
0.5 0 0
0.25 -0.75 0
0.375 -0.75 0
0.25 -0.625 0
0.375 -0.625 0
0.375 -0.75 0
0.5 -0.75 0
0.375 -0.625 0
0.5 -0.625 0
0.25 -0.625 0
0.375 -0.625 0
0.25 -0.5 0
0.375 -0.5 0
0.375 -0.625 0
0.5 -0.625 0
0.375 -0.5 0
0.5 -0.5 0
0 -0.25 0
0.125 -0.25 0
0 -0.125 0
0.125 -0.125 0
0.125 -0.25 0
0.25 -0.25 0
0.125 -0.125 0
0.25 -0.125 0
0 -0.125 0
0.125 -0.125 0
0 0 0
0.125 0 0
0.125 -0.125 0
0.25 -0.125 0
0.125 0 0
0.25 0 0
-0.25 -0.25 0
-0.125 -0.25 0
-0.25 -0.125 0
-0.125 -0.125 0
-0.125 -0.25 0
0 -0.25 0
-0.125 -0.125 0
0 -0.125 0
-0.25 -0.125 0
-0.125 -0.125 0
-0.25 0 0
-0.125 0 0
-0.125 -0.125 0
0 -0.125 0
-0.125 0 0
0 0 0
-0.75 0 0
-0.625 0 0
-0.75 0.125 0
-0.625 0.125 0
-0.625 0 0
-0.5 0 0
-0.625 0.125 0
-0.5 0.125 0
-0.75 0.125 0
-0.625 0.125 0
-0.75 0.25 0
-0.625 0.25 0
-0.625 0.125 0
-0.5 0.125 0
-0.625 0.25 0
-0.5 0.25 0
-1 0.25 0
-0.875 0.25 0
-1 0.375 0
-0.875 0.375 0
-0.875 0.25 0
-0.75 0.25 0
-0.875 0.375 0
-0.75 0.375 0
-1 0.375 0
-0.875 0.375 0
-1 0.5 0
-0.875 0.5 0
-0.875 0.375 0
-0.75 0.375 0
-0.875 0.5 0
-0.75 0.5 0
-0.75 0.25 0
-0.625 0.25 0
-0.75 0.375 0
-0.625 0.375 0
-0.25 0 0
-0.125 0 0
-0.25 0.125 0
-0.125 0.125 0
-0.125 0 0
0 0 0
-0.125 0.125 0
0 0.125 0
-0.125 0.125 0
0 0.125 0
-0.125 0.25 0
0 0.25 0
-1 0.75 0
-0.875 0.75 0
-1 0.875 0
-0.875 0.875 0
-1 0.875 0
-0.875 0.875 0
-1 1 0
-0.875 1 0
-0.875 0.875 0
-0.75 0.875 0
-0.875 1 0
-0.75 1 0
-0.5 0 0
-0.375 0 0
-0.5 0.125 0
-0.375 0.125 0
-0.375 0 0
-0.25 0 0
-0.375 0.125 0
-0.25 0.125 0
-1 0.5 0
-0.875 0.5 0
-1 0.625 0
-0.875 0.625 0
-1 0.625 0
-0.875 0.625 0
-1 0.75 0
-0.875 0.75 0
-0.625 0.25 0
-0.5625 0.25 0
-0.625 0.3125 0
-0.5625 0.3125 0
-0.5625 0.25 0
-0.5 0.25 0
-0.5625 0.3125 0
-0.5 0.3125 0
-0.625 0.3125 0
-0.5625 0.3125 0
-0.625 0.375 0
-0.5625 0.375 0
-0.5625 0.3125 0
-0.5 0.3125 0
-0.5625 0.375 0
-0.5 0.375 0
-0.75 0.375 0
-0.6875 0.375 0
-0.75 0.4375 0
-0.6875 0.4375 0
-0.6875 0.375 0
-0.625 0.375 0
-0.6875 0.4375 0
-0.625 0.4375 0
-0.75 0.4375 0
-0.6875 0.4375 0
-0.75 0.5 0
-0.6875 0.5 0
-0.6875 0.4375 0
-0.625 0.4375 0
-0.6875 0.5 0
-0.625 0.5 0
-0.625 0.375 0
-0.5625 0.375 0
-0.625 0.4375 0
-0.5625 0.4375 0
-0.5625 0.375 0
-0.5 0.375 0
-0.5625 0.4375 0
-0.5 0.4375 0
-0.625 0.4375 0
-0.5625 0.4375 0
-0.625 0.5 0
-0.5625 0.5 0
-0.5625 0.4375 0
-0.5 0.4375 0
-0.5625 0.5 0
-0.5 0.5 0
-0.25 0.125 0
-0.1875 0.125 0
-0.25 0.1875 0
-0.1875 0.1875 0
-0.1875 0.125 0
-0.125 0.125 0
-0.1875 0.1875 0
-0.125 0.1875 0
-0.25 0.1875 0
-0.1875 0.1875 0
-0.25 0.25 0
-0.1875 0.25 0
-0.1875 0.1875 0
-0.125 0.1875 0
-0.1875 0.25 0
-0.125 0.25 0
-0.875 0.75 0
-0.8125 0.75 0
-0.875 0.8125 0
-0.8125 0.8125 0
-0.8125 0.75 0
-0.75 0.75 0
-0.8125 0.8125 0
-0.75 0.8125 0
-0.875 0.8125 0
-0.8125 0.8125 0
-0.875 0.875 0
-0.8125 0.875 0
-0.8125 0.8125 0
-0.75 0.8125 0
-0.8125 0.875 0
-0.75 0.875 0
-0.5 0.125 0
-0.4375 0.125 0
-0.5 0.1875 0
-0.4375 0.1875 0
-0.4375 0.125 0
-0.375 0.125 0
-0.4375 0.1875 0
-0.375 0.1875 0
-0.5 0.1875 0
-0.4375 0.1875 0
-0.5 0.25 0
-0.4375 0.25 0
-0.4375 0.1875 0
-0.375 0.1875 0
-0.4375 0.25 0
-0.375 0.25 0
-0.375 0.125 0
-0.3125 0.125 0
-0.375 0.1875 0
-0.3125 0.1875 0
-0.3125 0.125 0
-0.25 0.125 0
-0.3125 0.1875 0
-0.25 0.1875 0
-0.375 0.1875 0
-0.3125 0.1875 0
-0.375 0.25 0
-0.3125 0.25 0
-0.3125 0.1875 0
-0.25 0.1875 0
-0.3125 0.25 0
-0.25 0.25 0
-0.125 0.25 0
-0.0625 0.25 0
-0.125 0.3125 0
-0.0625 0.3125 0
-0.0625 0.25 0
0 0.25 0
-0.0625 0.3125 0
0 0.3125 0
-0.125 0.3125 0
-0.0625 0.3125 0
-0.125 0.375 0
-0.0625 0.375 0
-0.0625 0.3125 0
0 0.3125 0
-0.0625 0.375 0
0 0.375 0
-0.375 0.25 0
-0.3125 0.25 0
-0.375 0.3125 0
-0.3125 0.3125 0
-0.3125 0.25 0
-0.25 0.25 0
-0.3125 0.3125 0
-0.25 0.3125 0
-0.375 0.3125 0
-0.3125 0.3125 0
-0.375 0.375 0
-0.3125 0.375 0
-0.3125 0.3125 0
-0.25 0.3125 0
-0.3125 0.375 0
-0.25 0.375 0
-0.375 0.375 0
-0.3125 0.375 0
-0.375 0.4375 0
-0.3125 0.4375 0
-0.3125 0.375 0
-0.25 0.375 0
-0.3125 0.4375 0
-0.25 0.4375 0
-0.375 0.4375 0
-0.3125 0.4375 0
-0.375 0.5 0
-0.3125 0.5 0
-0.3125 0.4375 0
-0.25 0.4375 0
-0.3125 0.5 0
-0.25 0.5 0
-0.875 0.5 0
-0.8125 0.5 0
-0.875 0.5625 0
-0.8125 0.5625 0
-0.8125 0.5 0
-0.75 0.5 0
-0.8125 0.5625 0
-0.75 0.5625 0
-0.875 0.5625 0
-0.8125 0.5625 0
-0.875 0.625 0
-0.8125 0.625 0
-0.8125 0.5625 0
-0.75 0.5625 0
-0.8125 0.625 0
-0.75 0.625 0
-0.875 0.625 0
-0.8125 0.625 0
-0.875 0.6875 0
-0.8125 0.6875 0
-0.8125 0.625 0
-0.75 0.625 0
-0.8125 0.6875 0
-0.75 0.6875 0
-0.875 0.6875 0
-0.8125 0.6875 0
-0.875 0.75 0
-0.8125 0.75 0
-0.8125 0.6875 0
-0.75 0.6875 0
-0.8125 0.75 0
-0.75 0.75 0
-0.75 0.625 0
-0.6875 0.625 0
-0.75 0.6875 0
-0.6875 0.6875 0
-0.6875 0.625 0
-0.625 0.625 0
-0.6875 0.6875 0
-0.625 0.6875 0
-0.75 0.6875 0
-0.6875 0.6875 0
-0.75 0.75 0
-0.6875 0.75 0
-0.6875 0.6875 0
-0.625 0.6875 0
-0.6875 0.75 0
-0.625 0.75 0
-0.625 0.625 0
-0.5625 0.625 0
-0.625 0.6875 0
-0.5625 0.6875 0
-0.5625 0.625 0
-0.5 0.625 0
-0.5625 0.6875 0
-0.5 0.6875 0
-0.625 0.6875 0
-0.5625 0.6875 0
-0.625 0.75 0
-0.5625 0.75 0
-0.5625 0.6875 0
-0.5 0.6875 0
-0.5625 0.75 0
-0.5 0.75 0
-0.75 0.875 0
-0.6875 0.875 0
-0.75 0.9375 0
-0.6875 0.9375 0
-0.6875 0.875 0
-0.625 0.875 0
-0.6875 0.9375 0
-0.625 0.9375 0
-0.75 0.9375 0
-0.6875 0.9375 0
-0.75 1 0
-0.6875 1 0
-0.6875 0.9375 0
-0.625 0.9375 0
-0.6875 1 0
-0.625 1 0
-0.25 0.25 0
-0.1875 0.25 0
-0.25 0.3125 0
-0.1875 0.3125 0
-0.1875 0.25 0
-0.125 0.25 0
-0.1875 0.3125 0
-0.125 0.3125 0
-0.0625 0.375 0
0 0.375 0
-0.0625 0.4375 0
0 0.4375 0
-0.5 0.25 0
-0.4375 0.25 0
-0.5 0.3125 0
-0.4375 0.3125 0
-0.4375 0.25 0
-0.375 0.25 0
-0.4375 0.3125 0
-0.375 0.3125 0
-0.5 0.3125 0
-0.4375 0.3125 0
-0.5 0.375 0
-0.4375 0.375 0
-0.75 0.5 0
-0.6875 0.5 0
-0.75 0.5625 0
-0.6875 0.5625 0
-0.6875 0.5 0
-0.625 0.5 0
-0.6875 0.5625 0
-0.625 0.5625 0
-0.75 0.5625 0
-0.6875 0.5625 0
-0.75 0.625 0
-0.6875 0.625 0
-0.75 0.75 0
-0.6875 0.75 0
-0.75 0.8125 0
-0.6875 0.8125 0
-0.75 0.8125 0
-0.6875 0.8125 0
-0.75 0.875 0
-0.6875 0.875 0
-0.625 0.9375 0
-0.5625 0.9375 0
-0.625 1 0
-0.5625 1 0
-0.4375 0.5625 0
-0.375 0.5625 0
-0.4375 0.625 0
-0.375 0.625 0
-0.1875 0.5 0
-0.125 0.5 0
-0.1875 0.5625 0
-0.125 0.5625 0
-0.25 0.5625 0
-0.1875 0.5625 0
-0.25 0.625 0
-0.1875 0.625 0
-0.1875 0.5625 0
-0.125 0.5625 0
-0.1875 0.625 0
-0.125 0.625 0
-0.25 0.625 0
-0.1875 0.625 0
-0.25 0.6875 0
-0.1875 0.6875 0
-0.25 0.6875 0
-0.1875 0.6875 0
-0.25 0.75 0
-0.1875 0.75 0
-0.4375 0.75 0
-0.375 0.75 0
-0.4375 0.8125 0
-0.375 0.8125 0
-0.5 0.8125 0
-0.4375 0.8125 0
-0.5 0.875 0
-0.4375 0.875 0
-0.3125 0.75 0
-0.25 0.75 0
-0.3125 0.8125 0
-0.25 0.8125 0
-0.25 0.75 0
-0.1875 0.75 0
-0.25 0.8125 0
-0.1875 0.8125 0
-0.25 0.3125 0
-0.21875 0.3125 0
-0.25 0.34375 0
-0.21875 0.34375 0
-0.21875 0.3125 0
-0.1875 0.3125 0
-0.21875 0.34375 0
-0.1875 0.34375 0
-0.25 0.34375 0
-0.21875 0.34375 0
-0.25 0.375 0
-0.21875 0.375 0
-0.21875 0.34375 0
-0.1875 0.34375 0
-0.21875 0.375 0
-0.1875 0.375 0
-0.1875 0.3125 0
-0.15625 0.3125 0
-0.1875 0.34375 0
-0.15625 0.34375 0
-0.15625 0.3125 0
-0.125 0.3125 0
-0.15625 0.34375 0
-0.125 0.34375 0
-0.1875 0.34375 0
-0.15625 0.34375 0
-0.1875 0.375 0
-0.15625 0.375 0
-0.15625 0.34375 0
-0.125 0.34375 0
-0.15625 0.375 0
-0.125 0.375 0
[...]
POINT_DATA 2772
SCALARS U double 1
LOOKUP_TABLE default
0 0 0 2.28537e-05 0 0 2.28537e-05 8.9106e-05 0 2.28537e-05 0 3.42784e-05 2.28537e-05 8.9106e-05 3.42784e-05 0.000135399 0 0 8.9106e-05 0.000255391 0 0 0.000255391 0.000561182 8.9106e-05 0.000255391 0.000135399 0.000382775 0.000255391 0.000561182 0.000382775 0.000829616 0 3.42784e-05 0 2.9318e-05 3.42784e-05 0.000135399 2.9318e-05 0.000106765 0 2.9318e-05 0 7.61073e-05 2.9318e-05 0.000106765 7.61073e-05 0.000265681 0.000135399 0.000382775 0.000106765 0.000301142 0.000382775 0.000829616 0.000301142 0.000633403 0.000106765 0.000301142 0.000265681 0.000344738 0 0 0.000561182 0.00092746 0 0 0.00092746 0.00107276 0.000561182 0.00092746 0.000829616 0.00137222 0 0 0.00107276 0.000753232 0 0 0.000753232 0 0.000829616 0.00137222 0.000633403 0.00101101 0 7.61073e-05 0 0.000570479 0.00156162 0.00142476 0.0014778 0.00134993 0.00142476 0.00109166 0.00134993 0.00103445 0.0014778 0.00134993 0.00115431 0.00105352 0.00134993 0.00103445 0.00105352 0.000807428 0.00109166 0.000593111 0.00103445 0.000562288 0.000593111 0 0.000562288 0 0.00103445 0.000562288 0.000807428 0.000438874 0.000562288 0 0.000438874 0 0.00115431 0.00105352 0.000632975 0.000577519 0.00105352 0.000807428 0.000577519 0.000442564 0.000632975 0.000577519 0 0 0.000577519 0.000442564 0 0 0.000807428 0.000438874 0.000442564 0.000240545 0.000438874 0 0.000240545 0 0.000442564 0.000240545 0 0 0.000240545 0 0 0 0.00107276 0.000912997 0.00140045 0.00128049 0.000912997 0.000753232 0.00128049 0.00097607 0.00140045 0.00128049 0.00156162 0.00142476 0.00128049 0.00097607 0.00142476 0.00109166 0.000753232 0.000376616 0.00097607 0.00053253 0.000376616 0 0.00053253 0 0.00097607 0.00053253 0.00109166 0.000593111 0.00053253 0 0.000593111 0 0.00137222 0.00150513 0.00119161 0.00143152 0.00150513 0.00156162 0.00143152 0.0014778 0.00119161 0.00143152 0.00101101 0.00111532 0.00143152 0.0014778 0.00111532 0.00115431 0.00101101 0.00111532 0.000548881 0.00061799 0.00111532 0.00115431 0.00061799 0.000632975 0.000548881 0.00061799 0 0 0.00061799 0.000632975 0 0 0.00092746 0.00100011 0.00114984 0.00136549 0.00100011 0.00107276 0.00136549 0.00140045 0.00114984 0.00136549 0.00137222 0.00150513 0.00136549 0.00140045 0.00150513 0.00156162 0.000633403 0.000822204 0.000381302 0.000454356 0.000822204 0.00101101 0.000454356 0.000548881 0.000381302 0.000454356 0 0 0.000454356 0.000548881 0 0 0.000301142 0.000467273 0.00032294 0.000321117 0.000467273 0.000633403 0.000321117 0.000381302 0.00032294 0.000321117 0.000344738 0.000280234 0.000321117 0.000381302 0.000280234 0 7.61073e-05 0.000170894 0.000323293 0.000481885 0.000170894 0.000265681 0.000481885 0.000719238 0.000323293 0.000481885 0.000570479 0.00120506 0.000481885 0.000719238 0.00120506 0.001933 0 0.00028524 0 0.000431521 0.00028524 0.000570479 0.000431521 0.00119172 0 0.000431521 0 0.000642977 0.000431521 0.00119172 0.000642977 0.00191128 0.000570479 0.00120506 0.00119172 0.00256081 0.000344738 0.000280234 0.000884286 0.000519122 0.000280234 0 0.000519122 0 0.000519122 0 0.00147941 0 0 0.000775576 0 0.000446673 0 0.000446673 0 0 0.000446673 0.00146002 0 0 0.000265681 0.00030521 0.000719238 0.000924789 0.00030521 0.000344738 0.000924789 0.000884286 0 0.000642977 0 0.000822025 0 0.000822025 0 0.000775576 0.00120506 0.00156903 0.00188293 0.00241572 0.00156903 0.001933 0.00241572 0.00301836 0.00188293 0.00241572 0.00256081 0.00354622 0.00241572 0.00301836 0.00354622 0.00456362 0.00119172 0.00187627 0.0015515 0.00240684 0.00187627 0.00256081 0.00240684 0.0035427 0.0015515 0.00240684 0.00191128 0.00300639 0.00240684 0.0035427 0.00300639 0.00455785 0.00256081 0.00354622 0.0035427 0.00498879 0.00354622 0.00456362 0.00498879 0.00659724 0.0035427 0.00498879 0.00455785 0.0065953 0.00498879 0.00659724 0.0065953 0.00920384 0.000884286 0.000701704 0.00144137 0.00123814 0.000701704 0.000519122 0.00123814 0.000999268 0.00144137 0.00123814 0.00239369 0.00204867 0.00123814 0.000999268 0.00204867 0.00147941 0.000775576 0.00138291 0.000611125 0.00118545 0.00138291 0.00236109 0.00118545 0.00201964 0.000611125 0.00118545 0.000446673 0.000953348 0.00118545 0.00201964 0.000953348 0.00146002 0.000719238 0.000822013 0.00132612 0.00140825 0.000822013 0.000924789 0.00140825 0.00151258 0.00132612 0.00140825 0.001933 0.0022764 0.00140825 0.00151258 0.0022764 0.00247792 0.000924789 0.000904537 0.00151258 0.00153631 0.000904537 0.000884286 0.00153631 0.00144137 0.00151258 0.00153631 0.00247792 0.00252756 0.00153631 0.00144137 0.00252756 0.00239369 0.00147941 0.000739707 0.00242974 0.00129615 0.000739707 0 0.00129615 0 0.00242974 0.00129615 0.00395468 0.00211022 0.00129615 0 0.00211022 0 0.00247792 0.00252756 0.00392507 0.00402926 0.00252756 0.00239369 0.00402926 0.00383302 0.00392507 0.00402926 0.00606573 0.00629176 0.00402926 0.00383302 0.00629176 0.00602075 0.00606573 0.00629176 0.00913193 0.00956814 0.00629176 0.00602075 0.00956814 0.00919747 0.00913193 0.00956814 0.0131881 0.0138501 0.00956814 0.00919747 0.0138501 0.0134238 0.000642977 0.00127713 0.000732501 0.00135749 0.00127713 0.00191128 0.00135749 0.00224809 0.000732501 0.00135749 0.000822025 0.00145622 0.00135749 0.00224809 0.00145622 0.00244658 0.000822025 0.00145622 0.0007988 0.0014763 0.00145622 0.00244658 0.0014763 0.00249448 0.0007988 0.0014763 0.000775576 0.00138291 0.0014763 0.00249448 0.00138291 0.00236109 0.00244658 0.00390831 0.00249448 0.00401163 0.00390831 0.00605747 0.00401163 0.00628347 0.00249448 0.00401163 0.00236109 0.00381616 0.00401163 0.00628347 0.00381616 0.00601268 0.00605747 0.00912883 0.00628347 0.00956535 0.00912883 0.0131875 0.00956535 0.0138507 0.00628347 0.00956535 0.00601268 0.0091963 0.00956535 0.0138507 0.0091963 0.0134258 0.00146002 0.00241937 0.000730011 0.00129065 0.00241937 0.00394984 0.00129065 0.00210813 0.000730011 0.00129065 0 0 0.00129065 0.00210813 0 0 0.00239369 0.00204867 0.00383302 0.00336656 0.00204867 0.00147941 0.00336656 0.00242974 0.00211022 0 0.0034006 0 0.001933 0.0022764 0.00301836 0.00357999 0.0022764 0.00247792 0.00357999 0.00392507 0.00301836 0.00357999 0.00456362 0.00545749 0.00191128 0.00300639 0.00224809 0.00356525 0.00300639 0.00455785 0.00356525 0.00545013 0.00224809 0.00356525 0.00244658 0.00390831 0.00236109 0.00381616 0.00201964 0.00335158 0.00201964 0.00335158 0.00146002 0.00241937 0.00210813 0.00340044 0 0 0.0149596 0.017056 0.0170565 0.0195154 0.0120232 0.00939633 0.0157381 0.0124264 0.0174621 0.0157381 0.0200981 0.0181456 0.0157381 0.0124264 0.0181456 0.0143385 0.0200981 0.0181456 0.0211533 0.0191105 0.0211533 0.0191105 0.0207728 0.018767 0.0174645 0.0200689 0.0157666 0.0181056 0.0120215 0.0157666 0.00939367 0.0124306 0.0211329 0.0207728 0.019089 0.0187776 0.0207728 0.018767 0.0187776 0.0170027 0.00383302 0.00359979 0.00492688 0.00456587 0.00359979 0.00336656 0.00456587 0.00417321 0.00492688 0.00456587 0.00602075 0.00580986 0.00456587 0.00417321 0.00580986 0.00527373 0.00336656 0.00289815 0.00417321 0.00371187 0.00289815 0.00242974 0.00371187 0.00319221 0.00417321 0.00371187 0.00527373 0.00472841 0.00371187 0.00319221 0.00472841 0.00395468 0.00602075 0.00580986 0.00760911 0.00712271 0.00580986 0.00527373 0.00712271 0.00654052 0.00760911 0.00712271 0.00919747 0.00887932 0.00712271 0.00654052 0.00887932 0.00818918 0.00527373 0.00472841 0.00654052 0.00584061 0.00472841 0.00395468 0.00584061 0.00490808 0.00654052 0.00584061 0.00818918 0.00733362 0.00584061 0.00490808 0.00733362 0.00621476 0.00939633 0.00756577 0.0109114 0.00882489 0.00756577 0.00526874 0.00882489 0.00632018 0.0109114 0.00882489 0.0124264 0.00998845 0.0124264 0.00998845 0.0133824 0.0108763 0.0133824 0.0108763 0.0143385 0.0115371 0.0108763 0.0078208 0.0115371 0.00827189 0.00384621 0 0.00403391 0 0.00919747 0.00887932 0.0113107 0.010761 0.00887932 0.00818918 0.010761 0.00991974 0.0113107 0.010761 0.0134238 0.012878 0.010761 0.00991974 0.012878 0.0120232 0.0181456 0.016242 0.018628 0.01693 0.016242 0.0143385 0.01693 0.0147657 0.018628 0.01693 0.0191105 0.0172552 0.01693 0.0147657 0.0172552 0.0150341 0.00818918 0.00733362 0.00991974 0.00896363 0.00733362 0.00621476 0.00896363 0.00761007 0.00991974 0.00896363 0.0120232 0.0107098 0.00896363 0.00761007 0.0107098 0.00939633 0.0191105 0.0172552 0.0189388 0.017252 0.0172552 0.0150341 0.017252 0.0150199 0.0189388 0.017252 0.018767 0.0169572 0.017252 0.0150199 0.0169572 0.0147908 0.0143385 0.0115371 0.0147657 0.0119101 0.0043251 0 0.0044661 0 0.00395468 0.00303245 0.00490808 0.00387394 0.00303245 0.00211022 0.00387394 0.00275541 0.00490808 0.00387394 0.00621476 0.00495991 0.00387394 0.00275541 0.00495991 0.0034006 0.00621476 0.00495991 0.00761007 0.00612537 0.00495991 0.0034006 0.00612537 0.00423915 0.00761007 0.00612537 0.00939633 0.00756577 0.00612537 0.00423915 0.00756577 0.00526874 0.0157666 0.0169361 0.0140986 0.0154363 0.0169361 0.0181056 0.0154363 0.0163914 0.0140986 0.0154363 0.0124306 0.0134474 0.0154363 0.0163914 0.0134474 0.0142852 0.0034006 0.0017003 0.00423915 0.00221873 0.0017003 0 0.00221873 0 0.00423915 0.00221873 0.00526874 0.00280064 0.00221873 0 0.00280064 0 0.0181056 0.0186791 0.0163914 0.0169704 0.0186791 0.019089 0.0169704 0.0172831 0.0163914 0.0169704 0.0142852 0.0147863 0.0169704 0.0172831 0.0147863 0.0150336 0.019089 0.0189333 0.0172831 0.0172615 0.0189333 0.0187776 0.0172615 0.0169603 0.0172831 0.0172615 0.0150336 0.0150259 0.0172615 0.0169603 0.0150259 0.0147947 0.00939367 0.0109122 0.00756814 0.00882588 0.0109122 0.0124306 0.00882588 0.0100024 0.00756814 0.00882588 0.00527122 0.00632276 0.0124306 0.0134474 0.0100024 0.01088 0.01088 0.0115386 0.00782149 0.00827314 0.00384869 0.00403686 0 0 0.0142852 0.0147863 0.0115386 0.0119021 0.00432721 0.00446776 0 0 0.00357999 0.00375253 0.00451874 0.00470361 0.00375253 0.00392507 0.00470361 0.0049954 0.00451874 0.00470361 0.00545749 0.00590632 0.00470361 0.0049954 0.00590632 0.00606573 0.018767 0.0169572 0.0178849 0.0163401 0.0169572 0.0147908 0.0163401 0.0142816 0.0178849 0.0163401 0.0170027 0.015414 0.0163401 0.0142816 0.015414 0.013497 0.0187776 0.0178902 0.0169603 0.0163399 0.0178902 0.0170027 0.0163399 0.0154148 0.0169603 0.0163399 0.0147947 0.0142845 0.0163399 0.0154148 0.0142845 0.0134985 0.0170027 0.015414 0.0154148 0.0140673 0.015414 0.013497 0.0140673 0.0123223 0.0154148 0.0140673 0.0134985 0.012323 0.0140673 0.0123223 0.012323 0.0108472 0.0142816 0.0115237 0.013497 0.0109051 0.0123223 0.0100134 0.0108472 0.00884288 0.0100134 0.00722531 0.00884288 0.00641005 0.0041228 0 0.00379286 0 0.00379286 0 0.00338035 0 0.0142845 0.0134985 0.0115264 0.0109067 0.012323 0.0108472 0.0100142 0.00884311 0.0100142 0.00884311 0.00722539 0.00641012 0.00433946 0.00412093 0 0 0.00412093 0.00379269 0 0 0.00379269 0.00338022 0 0 0.00884288 0.00641005 0.00723523 0.00530198 0.00884311 0.00723523 0.00641012 0.00530201 0.00338035 0 0.00277176 0 0.00277176 0 0.0021381 0 0.00338022 0.00277178 0 0 0.00277178 0.00213812 0 0 0.00456362 0.00501056 0.00558043 0.00612553 0.00501056 0.00545749 0.00612553 0.00667223 0.00558043 0.00612553 0.00659724 0.00746137 0.00612553 0.00667223 0.00746137 0.00819679 0.00545749 0.00590632 0.00667223 0.00714797 0.00590632 0.00606573 0.00714797 0.00759883 0.00667223 0.00714797 0.00819679 0.00880175 0.00714797 0.00759883 0.00880175 0.00913193 0.00659724 0.00746137 0.00790054 0.00888454 0.00746137 0.00819679 0.00888454 0.00978261 0.00790054 0.00888454 0.00920384 0.0105165 0.00888454 0.00978261 0.0105165 0.0115841 0.00819679 0.00880175 0.00978261 0.0105689 0.00880175 0.00913193 0.0105689 0.01116 0.00978261 0.0105689 0.0115841 0.0125694 0.0105689 0.01116 0.0125694 0.0131881 0.00356525 0.00450769 0.00373678 0.00469212 0.00450769 0.00545013 0.00469212 0.0058982 0.00373678 0.00469212 0.00390831 0.00498289 0.00469212 0.0058982 0.00498289 0.00605747 0.00455785 0.00557657 0.00500399 0.00612111 0.00557657 0.0065953 0.00612111 0.0074586 0.00500399 0.00612111 0.00545013 0.00666733 0.00612111 0.0074586 0.00666733 0.00819364 0.0065953 0.00789957 0.0074586 0.00888318 0.00789957 0.00920384 0.00888318 0.0105159 0.0074586 0.00888318 0.00819364 0.00978096 0.00888318 0.0105159 0.00978096 0.0115832 0.00545013 0.00666733 0.0058982 0.00714275 0.00666733 0.00819364 0.00714275 0.00879843 0.0058982 0.00714275 0.00605747 0.00759315 0.00714275 0.00879843 0.00759315 0.00912883 0.00819364 0.00978096 0.00879843 0.0105672 0.00978096 0.0115832 0.0105672 0.0125686 0.00879843 0.0105672 0.00912883 0.0111582 0.0105672 0.0125686 0.0111582 0.0131875 0.00381616 0.00491442 0.00358387 0.00455425 0.00491442 0.00601268 0.00455425 0.00580258 0.00358387 0.00455425 0.00335158 0.00416278 0.00455425 0.00580258 0.00416278 0.00526836 0.00335158 0.00416278 0.00288548 0.00370281 0.00416278 0.00526836 0.00370281 0.00472274 0.00288548 0.00370281 0.00241937 0.0031846 0.00370281 0.00472274 0.0031846 0.00394984 0.00394984 0.00490578 0.00302899 0.00387201 0.00490578 0.00621638 0.00387201 0.00495983 0.00302899 0.00387201 0.00210813 0.00275429 0.00387201 0.00495983 0.00275429 0.00340044 0.00621638 0.00761349 0.00495983 0.00612747 0.00761349 0.00939367 0.00612747 0.00756814 0.00495983 0.00612747 0.00340044 0.00424034 0.00612747 0.00756814 0.00424034 0.00527122 0.00340044 0.00424034 0.00170022 0.00221926 0.00424034 0.00527122 0.00221926 0.00280184 0.00170022 0.00221926 0 0 0.00221926 0.00280184 0 0 0.00601268 0.00760449 0.00580258 0.00711898 0.00760449 0.0091963 0.00711898 0.00887808 0.00580258 0.00711898 0.00526836 0.00653722 0.00711898 0.00887808 0.00653722 0.00818654 0.0091963 0.011311 0.00887808 0.0107625 0.011311 0.0134258 0.0107625 0.012883 0.00887808 0.0107625 0.00818654 0.00992327 0.0107625 0.012883 0.00992327 0.0120215 0.00526836 0.00653722 0.00472274 0.00583768 0.00653722 0.00818654 0.00583768 0.00733333 0.00472274 0.00583768 0.00394984 0.00490578 0.00583768 0.00733333 0.00490578 0.00621638 0.00818654 0.00992327 0.00733333 0.00896713 0.00992327 0.0120215 0.00896713 0.0107076 0.00733333 0.00896713 0.00621638 0.00761349 0.00896713 0.0107076 0.00761349 0.00939367 0.00920384 0.0105165 0.0105159 0.0121094 0.0105165 0.0115841 0.0121094 0.0133717 0.0105159 0.0121094 0.0115832 0.0133716 0.0121094 0.0133717 0.0133716 0.0149596 0.0115841 0.0125694 0.0133717 0.0145227 0.0125694 0.0131881 0.0145227 0.0151947 0.0133717 0.0145227 0.0149596 0.0160078 0.0145227 0.0151947 0.0160078 0.017056 0.0115832 0.0133716 0.0125686 0.0145227 0.0133716 0.0149596 0.0145227 0.016008 0.0125686 0.0145227 0.0131875 0.015195 0.0145227 0.016008 0.015195 0.0170565 0.0131881 0.0135191 0.0151947 0.0157736 0.0135191 0.0138501 0.0157736 0.0159268 0.0151947 0.0157736 0.017056 0.0175277 0.0157736 0.0159268 0.0175277 0.0177477 0.0138501 0.013637 0.0159268 0.0159435 0.013637 0.0134238 0.0159435 0.01552 0.0159268 0.0159435 0.0177477 0.0177428 0.0159435 0.01552 0.0177428 0.0174621 0.017056 0.0175277 0.0182857 0.0191252 0.0175277 0.0177477 0.0191252 0.0193427 0.0182857 0.0191252 0.0195154 0.0201027 0.0191252 0.0193427 0.0201027 0.0203715 0.0177477 0.0177428 0.0193427 0.0193816 0.0177428 0.0174621 0.0193816 0.0187801 0.0193427 0.0193816 0.0203715 0.0203766 0.0193816 0.0187801 0.0203766 0.0200981 0.0131875 0.015195 0.0135191 0.0157744 0.015195 0.0170565 0.0157744 0.0175287 0.0135191 0.0157744 0.0138507 0.0159276 0.0157744 0.0175287 0.0159276 0.0177483 0.0170565 0.0182859 0.0175287 0.0191264 0.0182859 0.0195154 0.0191264 0.0201035 0.0175287 0.0191264 0.0177483 0.0193453 0.0191264 0.0201035 0.0193453 0.0203759 0.0138507 0.0159276 0.0136382 0.0159448 0.0159276 0.0177483 0.0159448 0.0177428 0.0136382 0.0159448 0.0134258 0.0155218 0.0159448 0.0177428 0.0155218 0.0174645 0.0177483 0.0193453 0.0177428 0.0193829 0.0193453 0.0203759 0.0193829 0.0203886 0.0177428 0.0193829 0.0174645 0.0187667 0.0193829 0.0203886 0.0187667 0.0200689 0.0195154 0.0201027 0.0201035 0.0209224 0.0201027 0.0203715 0.0209224 0.0211751 0.0201035 0.0209224 0.0203759 0.0211804 0.0209224 0.0211751 0.0211804 0.0214591 0.0203715 0.0203766 0.0211751 0.021232 0.0203766 0.0200981 0.021232 0.0206257 0.0211751 0.021232 0.0214591 0.0214782 0.021232 0.0206257 0.0214782 0.0211533 0.0203759 0.0211804 0.0203886 0.0212412 0.0211804 0.0214591 0.0212412 0.0214869 0.0203886 0.0212412 0.0200689 0.0206932 0.0212412 0.0214869 0.0206932 0.0211329 0.0214591 0.0214782 0.0214869 0.0215714 0.0214782 0.0211533 0.0215714 0.0209631 0.0214869 0.0215714 0.0211329 0.0209528 0.0215714 0.0209631 0.0209528 0.0207728 0.0134238 0.012878 0.01552 0.0149848 0.012878 0.0120232 0.0149848 0.0138807 0.01552 0.0149848 0.0174621 0.0166001 0.0149848 0.0138807 0.0166001 0.0157381 0.00526874 0.00280064 0.00632018 0.00336775 0.00280064 0 0.00336775 0 0.00632018 0.00336775 0.0070519 0.00384621 0.00336775 0 0.00384621 0 0.0134258 0.0155218 0.012883 0.0149837 0.0155218 0.0174645 0.0149837 0.0166155 0.012883 0.0149837 0.0120215 0.013894 0.0149837 0.0166155 0.013894 0.0157666 0.0200689 0.0206932 0.0190873 0.0199933 0.0206932 0.0211329 0.0199933 0.0201109 0.0190873 0.0199933 0.0181056 0.0186791 0.0199933 0.0201109 0.0186791 0.019089 0.00527122 0.00632276 0.00280184 0.00336986 0.00632276 0.00705418 0.00336986 0.00384869 0.00280184 0.00336986 0 0 0.00336986 0.00384869 0 0 0.0037285 0.0021381 0.00213812 0.00118049 0.0021381 0 0.00118049 0 0.00213812 0.00118049 0 0 0.00118049 0 0 0 0.00882489 0.00757253 0.00940667 0.00821784 0.00757253 0.00632018 0.00821784 0.00668604 0.00940667 0.00821784 0.00998845 0.00864466 0.00821784 0.00668604 0.00864466 0.0070519 0.00998845 0.00864466 0.0104324 0.00910913 0.00864466 0.0070519 0.00910913 0.00744181 0.0104324 0.00910913 0.0108763 0.00934857 0.00910913 0.00744181 0.00934857 0.0078208 0.0070519 0.00544906 0.00744181 0.0058253 0.00544906 0.00384621 0.0058253 0.00394006 0.00744181 0.0058253 0.0078208 0.00602347 0.0058253 0.00394006 0.00602347 0.00403391 0.0078208 0.00602347 0.00804634 0.00625932 0.00602347 0.00403391 0.00625932 0.00416332 0.00804634 0.00625932 0.00827189 0.00640272 0.00625932 0.00416332 0.00640272 0.0043251 0.00403391 0.00201695 0.00416332 0.00220389 0.00201695 0 0.00220389 0 0.00416332 0.00220389 0.0043251 0.00216255 0.00220389 0 0.00216255 0 0.0115371 0.00990451 0.0117236 0.0102117 0.00990451 0.00827189 0.0102117 0.008393 0.0117236 0.0102117 0.0119101 0.0103359 0.0102117 0.008393 0.0103359 0.008506 0.0147657 0.0133379 0.0148999 0.0136065 0.0133379 0.0119101 0.0136065 0.0120107 0.0148999 0.0136065 0.0150341 0.013675 0.0136065 0.0120107 0.013675 0.0120821 0.0119101 0.0103359 0.0120107 0.0104714 0.0103359 0.008506 0.0104714 0.00861588 0.0120107 0.0104714 0.0120821 0.0105249 0.0104714 0.00861588 0.0105249 0.00866396 0.00827189 0.00640272 0.008393 0.00654104 0.00640272 0.0043251 0.00654104 0.0043956 0.008393 0.00654104 0.008506 0.00661461 0.00654104 0.0043956 0.00661461 0.0044661 0.008506 0.00661461 0.00861588 0.00670085 0.00661461 0.0044661 0.00670085 0.00447425 0.00861588 0.00670085 0.00866396 0.00673458 0.00670085 0.00447425 0.00673458 0.00450523 0.0044661 0.00223305 0.00447425 0.00236114 0.00223305 0 0.00236114 0 0.00447425 0.00236114 0.00450523 0.00237366 0.00236114 0 0.00237366 0 0.0150341 0.013675 0.015027 0.0137244 0.013675 0.0120821 0.0137244 0.0121201 0.015027 0.0137244 0.0150199 0.0136643 0.0137244 0.0121201 0.0136643 0.0120741 0.0120821 0.0105249 0.0121201 0.0105593 0.0105249 0.00866396 0.0105593 0.00869156 0.0121201 0.0105593 0.0120741 0.0105202 0.0105593 0.00869156 0.0105202 0.0086601 0.0150199 0.0136643 0.0149054 0.0136184 0.0136643 0.0120741 0.0136184 0.0120289 0.0149054 0.0136184 0.0147908 0.0134603 0.0136184 0.0120289 0.0134603 0.011897 0.0120741 0.0105202 0.0120289 0.010483 0.0105202 0.0086601 0.010483 0.00863053 0.0120289 0.010483 0.011897 0.0103703 0.010483 0.00863053 0.0103703 0.00854011 0.00866396 0.00673458 0.00869156 0.00675731 0.00673458 0.00450523 0.00675731 0.00452054 0.00869156 0.00675731 0.0086601 0.00673397 0.00675731 0.00452054 0.00673397 0.00450505 0.00450523 0.00237366 0.00452054 0.00238204 0.00237366 0 0.00238204 0 0.00452054 0.00238204 0.00450505 0.00237442 0.00238204 0 0.00237442 0 0.0086601 0.00673397 0.00863053 0.00671169 0.00673397 0.00