# vtk DataFile Version 3.0
#This file was generated by the deal.II library on 2021/4/23 at 0:45:38
ASCII
DATASET UNSTRUCTURED_GRID

FIELD FieldData 2
CYCLE 1 1 int
25
TIME 1 1 double
0.05
POINTS 2976 double
-1 -1 0
-0.75 -1 0
-1 -0.75 0
-0.75 -0.75 0
-0.75 -1 0
-0.5 -1 0
-0.75 -0.75 0
-0.5 -0.75 0
-1 -0.75 0
-0.75 -0.75 0
-1 -0.5 0
-0.75 -0.5 0
-0.75 -0.75 0
-0.5 -0.75 0
-0.75 -0.5 0
-0.5 -0.5 0
-0.5 -1 0
-0.25 -1 0
-0.5 -0.75 0
-0.25 -0.75 0
-0.25 -1 0
0 -1 0
-0.25 -0.75 0
0 -0.75 0
-0.5 -0.75 0
-0.25 -0.75 0
-0.5 -0.5 0
-0.25 -0.5 0
-0.25 -0.75 0
0 -0.75 0
-0.25 -0.5 0
0 -0.5 0
-1 -0.5 0
-0.75 -0.5 0
-1 -0.25 0
-0.75 -0.25 0
-0.75 -0.5 0
-0.5 -0.5 0
-0.75 -0.25 0
-0.5 -0.25 0
-1 -0.25 0
-0.75 -0.25 0
-1 0 0
-0.75 0 0
-0.75 -0.25 0
-0.5 -0.25 0
-0.75 0 0
-0.5 0 0
-0.5 -0.5 0
-0.25 -0.5 0
-0.5 -0.25 0
-0.25 -0.25 0
-0.5 -0.25 0
-0.25 -0.25 0
-0.5 0 0
-0.25 0 0
0 -1 0
0.25 -1 0
0 -0.75 0
0.25 -0.75 0
-1 0 0
-0.75 0 0
-1 0.25 0
-0.75 0.25 0
-0.75 0 0
-0.5 0 0
-0.75 0.25 0
-0.5 0.25 0
-1 0.25 0
-0.75 0.25 0
-1 0.5 0
-0.75 0.5 0
-0.75 0.25 0
-0.5 0.25 0
-0.75 0.5 0
-0.5 0.5 0
-0.5 0 0
-0.25 0 0
-0.5 0.25 0
-0.25 0.25 0
-0.25 0 0
0 0 0
-0.25 0.25 0
0 0.25 0
-0.5 0.25 0
-0.25 0.25 0
-0.5 0.5 0
-0.25 0.5 0
-0.25 0.25 0
0 0.25 0
-0.25 0.5 0
0 0.5 0
-1 0.5 0
-0.75 0.5 0
-1 0.75 0
-0.75 0.75 0
-0.75 0.5 0
-0.5 0.5 0
-0.75 0.75 0
-0.5 0.75 0
-1 0.75 0
-0.75 0.75 0
-1 1 0
-0.75 1 0
-0.75 0.75 0
-0.5 0.75 0
-0.75 1 0
-0.5 1 0
-0.5 0.5 0
-0.25 0.5 0
-0.5 0.75 0
-0.25 0.75 0
-0.25 0.5 0
0 0.5 0
-0.25 0.75 0
0 0.75 0
-0.5 0.75 0
-0.25 0.75 0
-0.5 1 0
-0.25 1 0
-0.25 0.75 0
0 0.75 0
-0.25 1 0
0 1 0
0.25 -0.75 0
0.375 -0.75 0
0.25 -0.625 0
0.375 -0.625 0
0.5 -1 0
0.625 -1 0
0.5 -0.875 0
0.625 -0.875 0
0.75 -1 0
0.875 -1 0
0.75 -0.875 0
0.875 -0.875 0
0.875 -1 0
1 -1 0
0.875 -0.875 0
1 -0.875 0
0.875 -0.875 0
1 -0.875 0
0.875 -0.75 0
1 -0.75 0
0 -0.125 0
0.125 -0.125 0
0 0 0
0.125 0 0
0.125 -0.125 0
0.25 -0.125 0
0.125 0 0
0.25 0 0
0.25 -1 0
0.375 -1 0
0.25 -0.875 0
0.375 -0.875 0
0.375 -1 0
0.5 -1 0
0.375 -0.875 0
0.5 -0.875 0
0.25 -0.875 0
0.375 -0.875 0
0.25 -0.75 0
0.375 -0.75 0
0 -0.75 0
0.125 -0.75 0
0 -0.625 0
0.125 -0.625 0
0.125 -0.75 0
0.25 -0.75 0
0.125 -0.625 0
0.25 -0.625 0
0 -0.625 0
0.125 -0.625 0
0 -0.5 0
0.125 -0.5 0
-0.25 -0.5 0
-0.125 -0.5 0
-0.25 -0.375 0
-0.125 -0.375 0
-0.125 -0.5 0
0 -0.5 0
-0.125 -0.375 0
0 -0.375 0
-0.25 -0.375 0
-0.125 -0.375 0
-0.25 -0.25 0
-0.125 -0.25 0
-0.125 -0.375 0
0 -0.375 0
-0.125 -0.25 0
0 -0.25 0
-0.25 -0.25 0
-0.125 -0.25 0
-0.25 -0.125 0
-0.125 -0.125 0
-0.125 -0.25 0
0 -0.25 0
-0.125 -0.125 0
0 -0.125 0
-0.25 -0.125 0
-0.125 -0.125 0
-0.25 0 0
-0.125 0 0
-0.125 -0.125 0
0 -0.125 0
-0.125 0 0
0 0 0
0.5625 -0.5 0
0.625 -0.5 0
0.5625 -0.4375 0
0.625 -0.4375 0
0.5 -0.4375 0
0.5625 -0.4375 0
0.5 -0.375 0
0.5625 -0.375 0
0.5625 -0.4375 0
0.625 -0.4375 0
0.5625 -0.375 0
0.625 -0.375 0
0.625 -0.5 0
0.6875 -0.5 0
0.625 -0.4375 0
0.6875 -0.4375 0
0.6875 -0.5 0
0.75 -0.5 0
0.6875 -0.4375 0
0.75 -0.4375 0
0.625 -0.4375 0
0.6875 -0.4375 0
0.625 -0.375 0
0.6875 -0.375 0
0.6875 -0.4375 0
0.75 -0.4375 0
0.6875 -0.375 0
0.75 -0.375 0
0.5 -0.375 0
0.5625 -0.375 0
0.5 -0.3125 0
0.5625 -0.3125 0
0.5625 -0.375 0
0.625 -0.375 0
0.5625 -0.3125 0
0.625 -0.3125 0
0.5 -0.3125 0
0.5625 -0.3125 0
0.5 -0.25 0
0.5625 -0.25 0
0.625 -0.375 0
0.6875 -0.375 0
0.625 -0.3125 0
0.6875 -0.3125 0
0.9375 -0.5 0
1 -0.5 0
0.9375 -0.4375 0
1 -0.4375 0
0.5 -0.0625 0
0.5625 -0.0625 0
0.5 0 0
0.5625 0 0
0.9375 -0.0625 0
1 -0.0625 0
0.9375 0 0
1 0 0
0.625 -0.625 0
0.6875 -0.625 0
0.625 -0.5625 0
0.6875 -0.5625 0
0.75 -0.625 0
0.8125 -0.625 0
0.75 -0.5625 0
0.8125 -0.5625 0
0.8125 -0.625 0
0.875 -0.625 0
0.8125 -0.5625 0
0.875 -0.5625 0
0.8125 -0.5625 0
0.875 -0.5625 0
0.8125 -0.5 0
0.875 -0.5 0
0.375 -0.375 0
0.4375 -0.375 0
0.375 -0.3125 0
0.4375 -0.3125 0
0.375 -0.1875 0
0.4375 -0.1875 0
0.375 -0.125 0
0.4375 -0.125 0
0.4375 -0.1875 0
0.5 -0.1875 0
0.4375 -0.125 0
0.5 -0.125 0
0.5 -0.75 0
0.5625 -0.75 0
0.5 -0.6875 0
0.5625 -0.6875 0
0.875 -0.75 0
0.9375 -0.75 0
0.875 -0.6875 0
0.9375 -0.6875 0
0.9375 -0.75 0
1 -0.75 0
0.9375 -0.6875 0
1 -0.6875 0
0.9375 -0.6875 0
1 -0.6875 0
0.9375 -0.625 0
1 -0.625 0
0.9375 -0.625 0
1 -0.625 0
0.9375 -0.5625 0
1 -0.5625 0
0.25 -0.5 0
0.3125 -0.5 0
0.25 -0.4375 0
0.3125 -0.4375 0
0.25 -0.125 0
0.3125 -0.125 0
0.25 -0.0625 0
0.3125 -0.0625 0
0.25 -0.0625 0
0.3125 -0.0625 0
0.25 0 0
0.3125 0 0
0.3125 -0.0625 0
0.375 -0.0625 0
0.3125 0 0
0.375 0 0
0.375 -0.0625 0
0.4375 -0.0625 0
0.375 0 0
0.4375 0 0
0.375 -0.75 0
0.4375 -0.75 0
0.375 -0.6875 0
0.4375 -0.6875 0
0.4375 -0.75 0
0.5 -0.75 0
0.4375 -0.6875 0
0.5 -0.6875 0
0.375 -0.6875 0
0.4375 -0.6875 0
0.375 -0.625 0
0.4375 -0.625 0
0.4375 -0.6875 0
0.5 -0.6875 0
0.4375 -0.625 0
0.5 -0.625 0
0.25 -0.625 0
0.3125 -0.625 0
0.25 -0.5625 0
0.3125 -0.5625 0
0.3125 -0.625 0
0.375 -0.625 0
0.3125 -0.5625 0
0.375 -0.5625 0
0.25 -0.5625 0
0.3125 -0.5625 0
0.25 -0.5 0
0.3125 -0.5 0
0.3125 -0.5625 0
0.375 -0.5625 0
0.3125 -0.5 0
0.375 -0.5 0
0.375 -0.625 0
0.4375 -0.625 0
0.375 -0.5625 0
0.4375 -0.5625 0
0.4375 -0.625 0
0.5 -0.625 0
0.4375 -0.5625 0
0.5 -0.5625 0
0.375 -0.5625 0
0.4375 -0.5625 0
0.375 -0.5 0
0.4375 -0.5 0
0.4375 -0.5625 0
0.5 -0.5625 0
0.4375 -0.5 0
0.5 -0.5 0
0.625 -1 0
0.6875 -1 0
0.625 -0.9375 0
0.6875 -0.9375 0
0.6875 -1 0
0.75 -1 0
0.6875 -0.9375 0
0.75 -0.9375 0
0.625 -0.9375 0
0.6875 -0.9375 0
0.625 -0.875 0
0.6875 -0.875 0
0.6875 -0.9375 0
0.75 -0.9375 0
0.6875 -0.875 0
0.75 -0.875 0
0.5 -0.875 0
0.5625 -0.875 0
0.5 -0.8125 0
0.5625 -0.8125 0
0.5625 -0.875 0
0.625 -0.875 0
0.5625 -0.8125 0
0.625 -0.8125 0
0.5 -0.8125 0
0.5625 -0.8125 0
0.5 -0.75 0
0.5625 -0.75 0
0.5625 -0.8125 0
0.625 -0.8125 0
0.5625 -0.75 0
0.625 -0.75 0
0.625 -0.875 0
0.6875 -0.875 0
0.625 -0.8125 0
0.6875 -0.8125 0
0.6875 -0.875 0
0.75 -0.875 0
0.6875 -0.8125 0
0.75 -0.8125 0
0.625 -0.8125 0
0.6875 -0.8125 0
0.625 -0.75 0
0.6875 -0.75 0
0.6875 -0.8125 0
0.75 -0.8125 0
0.6875 -0.75 0
0.75 -0.75 0
0.75 -0.875 0
0.8125 -0.875 0
0.75 -0.8125 0
0.8125 -0.8125 0
0.8125 -0.875 0
0.875 -0.875 0
0.8125 -0.8125 0
0.875 -0.8125 0
0.75 -0.8125 0
0.8125 -0.8125 0
0.75 -0.75 0
0.8125 -0.75 0
0.8125 -0.8125 0
0.875 -0.8125 0
0.8125 -0.75 0
0.875 -0.75 0
0 -0.5 0
0.0625 -0.5 0
0 -0.4375 0
0.0625 -0.4375 0
0.0625 -0.5 0
0.125 -0.5 0
0.0625 -0.4375 0
0.125 -0.4375 0
0 -0.4375 0
0.0625 -0.4375 0
0 -0.375 0
0.0625 -0.375 0
0.0625 -0.4375 0
0.125 -0.4375 0
0.0625 -0.375 0
0.125 -0.375 0
0.125 -0.5 0
0.1875 -0.5 0
0.125 -0.4375 0
0.1875 -0.4375 0
0.1875 -0.5 0
0.25 -0.5 0
0.1875 -0.4375 0
0.25 -0.4375 0
0.125 -0.4375 0
0.1875 -0.4375 0
0.125 -0.375 0
0.1875 -0.375 0
0.1875 -0.4375 0
0.25 -0.4375 0
0.1875 -0.375 0
0.25 -0.375 0
0 -0.375 0
0.0625 -0.375 0
0 -0.3125 0
0.0625 -0.3125 0
0.0625 -0.375 0
0.125 -0.375 0
0.0625 -0.3125 0
0.125 -0.3125 0
0 -0.3125 0
0.0625 -0.3125 0
0 -0.25 0
0.0625 -0.25 0
0.0625 -0.3125 0
0.125 -0.3125 0
0.0625 -0.25 0
0.125 -0.25 0
0.125 -0.375 0
0.1875 -0.375 0
0.125 -0.3125 0
0.1875 -0.3125 0
0.1875 -0.375 0
0.25 -0.375 0
0.1875 -0.3125 0
0.25 -0.3125 0
0.125 -0.3125 0
0.1875 -0.3125 0
0.125 -0.25 0
0.1875 -0.25 0
0.1875 -0.3125 0
0.25 -0.3125 0
0.1875 -0.25 0
0.25 -0.25 0
0 -0.25 0
0.0625 -0.25 0
0 -0.1875 0
0.0625 -0.1875 0
0.0625 -0.25 0
0.125 -0.25 0
0.0625 -0.1875 0
0.125 -0.1875 0
0 -0.1875 0
0.0625 -0.1875 0
0 -0.125 0
0.0625 -0.125 0
0.0625 -0.1875 0
0.125 -0.1875 0
0.0625 -0.125 0
0.125 -0.125 0
0.125 -0.25 0
0.1875 -0.25 0
0.125 -0.1875 0
0.1875 -0.1875 0
0.1875 -0.25 0
0.25 -0.25 0
0.1875 -0.1875 0
0.25 -0.1875 0
0.125 -0.1875 0
0.1875 -0.1875 0
0.125 -0.125 0
0.1875 -0.125 0
0.1875 -0.1875 0
0.25 -0.1875 0
0.1875 -0.125 0
0.25 -0.125 0
0.375 -0.875 0
0.4375 -0.875 0
0.375 -0.8125 0
0.4375 -0.8125 0
0.4375 -0.875 0
0.5 -0.875 0
0.4375 -0.8125 0
0.5 -0.8125 0
0.375 -0.8125 0
0.4375 -0.8125 0
0.375 -0.75 0
0.4375 -0.75 0
0.4375 -0.8125 0
0.5 -0.8125 0
0.4375 -0.75 0
0.5 -0.75 0
0.125 -0.625 0
0.1875 -0.625 0
0.125 -0.5625 0
0.1875 -0.5625 0
0.1875 -0.625 0
0.25 -0.625 0
0.1875 -0.5625 0
0.25 -0.5625 0
0.125 -0.5625 0
0.1875 -0.5625 0
0.125 -0.5 0
0.1875 -0.5 0
0.1875 -0.5625 0
0.25 -0.5625 0
0.1875 -0.5 0
0.25 -0.5 0
0.75 -0.5 0
0.78125 -0.5 0
0.75 -0.46875 0
0.78125 -0.46875 0
0.78125 -0.5 0
0.8125 -0.5 0
0.78125 -0.46875 0
0.8125 -0.46875 0
0.75 -0.46875 0
0.78125 -0.46875 0
0.75 -0.4375 0
0.78125 -0.4375 0
0.78125 -0.46875 0
0.8125 -0.46875 0
0.78125 -0.4375 0
0.8125 -0.4375 0
0.8125 -0.5 0
0.84375 -0.5 0
0.8125 -0.46875 0
0.84375 -0.46875 0
0.84375 -0.5 0
0.875 -0.5 0
0.84375 -0.46875 0
0.875 -0.46875 0
0.8125 -0.46875 0
0.84375 -0.46875 0
0.8125 -0.4375 0
0.84375 -0.4375 0
0.84375 -0.46875 0
0.875 -0.46875 0
0.84375 -0.4375 0
0.875 -0.4375 0
0.75 -0.4375 0
0.78125 -0.4375 0
0.75 -0.40625 0
0.78125 -0.40625 0
0.75 -0.40625 0
0.78125 -0.40625 0
0.75 -0.375 0
0.78125 -0.375 0
0.75 -0.375 0
0.78125 -0.375 0
0.75 -0.34375 0
0.78125 -0.34375 0
0.96875 -0.375 0
1 -0.375 0
0.96875 -0.34375 0
1 -0.34375 0
0.96875 -0.34375 0
1 -0.34375 0
0.96875 -0.3125 0
1 -0.3125 0
0.96875 -0.3125 0
1 -0.3125 0
0.96875 -0.28125 0
1 -0.28125 0
0.96875 -0.28125 0
1 -0.28125 0
0.96875 -0.25 0
1 -0.25 0
0.5 -0.25 0
0.53125 -0.25 0
0.5 -0.21875 0
0.53125 -0.21875 0
0.53125 -0.25 0
0.5625 -0.25 0
0.53125 -0.21875 0
0.5625 -0.21875 0
0.5 -0.21875 0
0.53125 -0.21875 0
0.5 -0.1875 0
0.53125 -0.1875 0
0.53125 -0.21875 0
0.5625 -0.21875 0
0.53125 -0.1875 0
0.5625 -0.1875 0
0.5625 -0.25 0
0.59375 -0.25 0
0.5625 -0.21875 0
0.59375 -0.21875 0
0.5 -0.1875 0
0.53125 -0.1875 0
0.5 -0.15625 0
0.53125 -0.15625 0
0.53125 -0.1875 0
0.5625 -0.1875 0
0.53125 -0.15625 0
0.5625 -0.15625 0
0.5 -0.15625 0
0.53125 -0.15625 0
0.5 -0.125 0
0.53125 -0.125 0
0.53125 -0.15625 0
0.5625 -0.15625 0
0.53125 -0.125 0
0.5625 -0.125 0
0.625 -0.25 0
0.65625 -0.25 0
0.625 -0.21875 0
0.65625 -0.21875 0
0.625 -0.03125 0
0.65625 -0.03125 0
0.625 0 0
0.65625 0 0
0.65625 -0.03125 0
0.6875 -0.03125 0
0.65625 0 0
0.6875 0 0
0.6875 -0.03125 0
0.71875 -0.03125 0
0.6875 0 0
0.71875 0 0
0.71875 -0.03125 0
[...]
POINT_DATA 2976
SCALARS U double 1
LOOKUP_TABLE default
0 0 0 5.78344e-07 0 0 5.78344e-07 -2.85134e-06 0 5.78344e-07 0 8.76056e-07 5.78344e-07 -2.85134e-06 8.76056e-07 -4.96557e-06 0 0 -2.85134e-06 -5.32518e-06 0 0 -5.32518e-06 9.87762e-05 -2.85134e-06 -5.32518e-06 -4.96557e-06 -1.10746e-05 -5.32518e-06 9.87762e-05 -1.10746e-05 0.000299841 0 8.76056e-07 0 7.64082e-07 8.76056e-07 -4.96557e-06 7.64082e-07 -6.58575e-06 0 7.64082e-07 0 1.78097e-07 7.64082e-07 -6.58575e-06 1.78097e-07 -2.27224e-06 -4.96557e-06 -1.10746e-05 -6.58575e-06 1.31872e-05 -6.58575e-06 1.31872e-05 -2.27224e-06 7.23853e-06 0 0 9.87762e-05 0.000752599 0 1.78097e-07 0 -9.58166e-09 1.78097e-07 -2.27224e-06 -9.58166e-09 1.2115e-07 0 -9.58166e-09 0 1.72439e-08 -9.58166e-09 1.2115e-07 1.72439e-08 -1.81295e-08 -2.27224e-06 7.23853e-06 1.2115e-07 -1.40582e-06 7.23853e-06 0 -1.40582e-06 0 1.2115e-07 -1.40582e-06 -1.81295e-08 1.51104e-07 -1.40582e-06 0 1.51104e-07 0 0 1.72439e-08 0 -3.29647e-09 1.72439e-08 -1.81295e-08 -3.29647e-09 1.13713e-08 0 -3.29647e-09 0 0 -3.29647e-09 1.13713e-08 0 0 -1.81295e-08 1.51104e-07 1.13713e-08 -7.52682e-12 1.51104e-07 0 -7.52682e-12 0 1.13713e-08 -7.52682e-12 0 0 -7.52682e-12 0 0 0 0.000752599 0.00148933 0.00149667 0.00294179 0 0 0.000885362 0.00105906 0 0 0.000994044 0.000588334 0 0 0.000588334 0 0.000588334 0 0.00165927 0 0.00020269 0.000619443 0 0 0.000619443 0.00166907 0 0 0 0 0.000376299 0.000580211 0 0 0.000580211 0.000885362 0.000376299 0.000580211 0.000752599 0.00148933 9.87762e-05 0.000425687 0.000199308 0.000630194 0.000425687 0.000752599 0.000630194 0.00149667 0.000199308 0.000630194 0.000299841 0.000949897 -1.10746e-05 0.000144383 1.05626e-06 9.89429e-05 0.000144383 0.000299841 9.89429e-05 0.000401041 1.05626e-06 9.89429e-05 1.31872e-05 8.89648e-05 9.89429e-05 0.000401041 8.89648e-05 0.000360756 1.31872e-05 8.89648e-05 1.02128e-05 5.354e-05 8.89648e-05 0.000360756 5.354e-05 0.00020269 1.02128e-05 5.354e-05 7.23853e-06 3.61927e-06 5.354e-05 0.00020269 3.61927e-06 0 0.00908988 0.0100148 0.0106958 0.0118114 0.00908938 0.0106958 0.0100168 0.011807 0.0106958 0.0118114 0.011807 0.0130523 0.0100148 0.0102968 0.0118114 0.0121524 0.0102968 0.00976337 0.0121524 0.0115772 0.0118114 0.0121524 0.0130523 0.013486 0.0121524 0.0115772 0.013486 0.0128542 0.0100168 0.011807 0.0102927 0.0121709 0.011807 0.0130523 0.0121709 0.0134836 0.0102927 0.0121709 0.00976377 0.0115876 0.0130523 0.013486 0.0134836 0.0139371 0.003248 0 0.00389946 0 0.00324676 0.00389964 0 0 0.00144861 0 0 0 0.00599404 0.00612171 0.0079695 0.0081605 0.00577663 0.00494736 0.00774319 0.00662746 0.00494736 0.00360722 0.00662746 0.00484852 0.00662746 0.00484852 0.00837046 0.00614974 0.00599134 0.00796654 0.00611559 0.00815399 0.00492978 0.00660457 0.00360359 0.00484556 0.00660457 0.00837832 0.00484556 0.00614711 0.00232559 0.00266111 0.00340831 0.00392512 0.00165927 0.000829635 0.00251446 0.00132463 0.000829635 0 0.00132463 0 0.00132463 0 0.00189387 0 0.00189387 0 0.00257157 0 0.002338 0.00341089 0.00267634 0.00392733 0.00166907 0.00251568 0.000834533 0.00132443 0.000834533 0.00132443 0 0 0.00132443 0.00189158 0 0 0.00189158 0.00256868 0 0 0.00148933 0.00193478 0.00221556 0.00279457 0.00193478 0.00232559 0.00279457 0.00340831 0.00221556 0.00279457 0.00294179 0.00385496 0.00279457 0.00340831 0.00385496 0.00472269 0.00149667 0.00221923 0.00194565 0.00279713 0.00221923 0.00294179 0.00279713 0.00385516 0.00194565 0.00279713 0.002338 0.00341089 0.00279713 0.00385516 0.00341089 0.00472207 0.00294179 0.00385496 0.00385516 0.00503495 0.00385496 0.00472269 0.00503495 0.00622807 0.00385516 0.00503495 0.00472207 0.00622727 0.00503495 0.00622807 0.00622727 0.00774212 0 0 0.000529529 0.000493289 0 0 0.000493289 0.000497022 0.000529529 0.000493289 0.00105906 0.0010778 0.000493289 0.000497022 0.0010778 0.000994044 0.000885362 0.00097221 0.00149583 0.00170032 0.00097221 0.00105906 0.00170032 0.00182202 0.00149583 0.00170032 0.00232559 0.00266111 0.00170032 0.00182202 0.00266111 0.00288818 0.00105906 0.0010778 0.00182202 0.00183665 0.0010778 0.000994044 0.00183665 0.0017112 0.00182202 0.00183665 0.00288818 0.0029213 0.00183665 0.0017112 0.0029213 0.00273172 0.000994044 0.000791189 0.0017112 0.00144792 0.000791189 0.000588334 0.00144792 0.0011238 0.0017112 0.00144792 0.00273172 0.00233225 0.00144792 0.0011238 0.00233225 0.00165927 0.000299841 0.000624869 0.000350441 0.000647485 0.000624869 0.000949897 0.000647485 0.00109208 0.000350441 0.000647485 0.000401041 0.000685815 0.000647485 0.00109208 0.000685815 0.00116077 0.000949897 0.00153111 0.00109208 0.00174108 0.00153111 0.002338 0.00174108 0.00267634 0.00109208 0.00174108 0.00116077 0.00186646 0.00174108 0.00267634 0.00186646 0.00290477 0.000401041 0.000685815 0.000380899 0.000684961 0.000685815 0.00116077 0.000684961 0.00116259 0.000380899 0.000684961 0.000360756 0.000630914 0.000684961 0.00116259 0.000630914 0.00107959 0.00116077 0.00186646 0.00116259 0.00187908 0.00186646 0.00290477 0.00187908 0.002938 0.00116259 0.00187908 0.00107959 0.00175471 0.00187908 0.002938 0.00175471 0.00274851 0.000360756 0.000630914 0.000281723 0.000526547 0.000630914 0.00107959 0.000526547 0.000916784 0.000281723 0.000526547 0.00020269 0.000411067 0.000526547 0.000916784 0.000411067 0.000619443 0.00107959 0.00175471 0.000916784 0.00148252 0.00175471 0.00274851 0.00148252 0.00234677 0.000916784 0.00148252 0.000619443 0.00114425 0.00148252 0.00234677 0.00114425 0.00166907 0.000580211 0.000732786 0.00103477 0.00125155 0.000732786 0.000885362 0.00125155 0.00149583 0.00103477 0.00125155 0.00148933 0.00193478 0.00125155 0.00149583 0.00193478 0.00232559 0.000630194 0.00106343 0.000790045 0.00127777 0.00106343 0.00149667 0.00127777 0.00194565 0.000790045 0.00127777 0.000949897 0.00153111 0.00127777 0.00194565 0.00153111 0.002338 0.00976337 0.00919914 0.0106703 0.0100111 0.00919914 0.00837046 0.0100111 0.00918948 0.0106703 0.0100111 0.0115772 0.0108709 0.0100111 0.00918948 0.0108709 0.00986374 0.00837046 0.0072601 0.00918948 0.00801166 0.0072601 0.00614974 0.00801166 0.00675904 0.00918948 0.00801166 0.00986374 0.00874293 0.00801166 0.00675904 0.00874293 0.00723459 0.0115772 0.0108709 0.0122157 0.0114725 0.0122157 0.0114725 0.0128542 0.0120592 0.0128542 0.0120592 0.0131341 0.0123236 0.0021793 0 0.00221897 0 0.00221897 0 0.00226038 0 0.00226038 0 0.00221859 0 0.00221859 0 0.00216244 0 0.00976377 0.0106757 0.0092042 0.0100114 0.0106757 0.0115876 0.0100114 0.010883 0.0092042 0.0100114 0.00837832 0.00919514 0.0100114 0.010883 0.00919514 0.00986384 0.0115876 0.0122434 0.010883 0.011475 0.00837832 0.00919514 0.00726271 0.00801482 0.00919514 0.00986384 0.00801482 0.0087458 0.00726271 0.00801482 0.00614711 0.00676003 0.00801482 0.0087458 0.00676003 0.00723606 0.0128312 0.0131441 0.0120548 0.0123162 0.00217963 0.00221931 0 0 0.00221931 0.0022607 0 0 0.0022607 0.00221887 0 0 0.00221887 0.00216265 0 0 0.00216244 0 0.00202041 0 0.00202041 0 0.00186885 0 0.00186885 0 0.00161239 0 0.00161239 0 0.00139089 0 0.00216265 0.00202057 0 0 0.00202057 0.00186895 0 0 0.00186895 0.00161245 0 0 0.00161245 0.00139091 0 0 0.00986374 0.00874293 0.0105345 0.00932052 0.00874293 0.00723459 0.00932052 0.00774107 0.0105345 0.00932052 0.0109274 0.00969733 0.00932052 0.00774107 0.00969733 0.00801304 0.0109274 0.00969733 0.0113117 0.0100274 0.00969733 0.00801304 0.0100274 0.00829151 0.0113117 0.0100274 0.0113284 0.010085 0.0100274 0.00829151 0.010085 0.00830895 0.00801304 0.00635408 0.00829151 0.00653856 0.00635408 0.00424351 0.00653856 0.00438995 0.00829151 0.00653856 0.00830895 0.00655775 0.00653856 0.00438995 0.00655775 0.00439521 0.00830895 0.00655775 0.00828465 0.00652223 0.00655775 0.00439521 0.00652223 0.00437939 0.00828465 0.00652223 0.00795492 0.00626491 0.00652223 0.00437939 0.00626491 0.00419877 0.00986384 0.0105356 0.0087458 0.00932336 0.0105356 0.0109275 0.00932336 0.00969973 0.0087458 0.00932336 0.00723606 0.00774307 0.00932336 0.00969973 0.00774307 0.0080148 0.0109275 0.0113124 0.00969973 0.0100292 0.0113124 0.0113295 0.0100292 0.0100862 0.00969973 0.0100292 0.0080148 0.00829291 0.0100292 0.0100862 0.00829291 0.00830997 0.0080148 0.00829291 0.00635511 0.00653953 0.00829291 0.00830997 0.00653953 0.00655857 0.00635511 0.00653953 0.00424416 0.00439061 0.00653953 0.00655857 0.00439061 0.00439581 0.00830997 0.00828541 0.00655857 0.0065229 0.00828541 0.00795547 0.0065229 0.00626542 0.00655857 0.0065229 0.00439581 0.00437989 0.0065229 0.00626542 0.00437989 0.00419917 0.00931442 0.00830421 0.00830435 0.00737001 0.00830421 0.00683069 0.00737001 0.00608536 0.00830435 0.00737001 0.0068309 0.00608544 0.00737001 0.00608536 0.00608544 0.00501156 0.00795492 0.00626491 0.00756065 0.00595546 0.00626491 0.00419877 0.00595546 0.00399578 0.00756065 0.00595546 0.00683069 0.00540357 0.00595546 0.00399578 0.00540357 0.00361173 0.0121709 0.0128272 0.0118792 0.0126486 0.0128272 0.0134836 0.0126486 0.0132434 0.0118792 0.0126486 0.0115876 0.0122434 0.0126486 0.0132434 0.0122434 0.0128312 0.00683069 0.00540357 0.00608536 0.00481484 0.00540357 0.00361173 0.00481484 0.00322029 0.00608536 0.00481484 0.00501156 0.00400091 0.00481484 0.00322029 0.00400091 0.00267895 0.013486 0.0131701 0.0137116 0.0135508 0.0131701 0.0128542 0.0135508 0.0131341 0.0137116 0.0135508 0.0139371 0.013704 0.0135508 0.0131341 0.013704 0.0132667 0.0134836 0.0137103 0.0132434 0.0135639 0.0137103 0.0139371 0.0135639 0.0136998 0.0132434 0.0135639 0.0128312 0.0131441 0.0135639 0.0136998 0.0131441 0.0132647 0.0139371 0.013704 0.0136998 0.0135201 0.013704 0.0132667 0.0135201 0.0130794 0.0136998 0.0135201 0.0132647 0.0130802 0.0135201 0.0130794 0.0130802 0.0126608 0.00614974 0.00481556 0.00675904 0.00519004 0.00481556 0.003248 0.00519004 0.00357373 0.00519004 0.00357373 0.00564274 0.00389946 0.00795547 0.00756102 0.00626542 0.00595583 0.00756102 0.0068309 0.00595583 0.0054038 0.00626542 0.00595583 0.00419917 0.00399606 0.00595583 0.0054038 0.00399606 0.00361191 0.00389946 0.00194973 0.00410955 0.00204488 0.00194973 0 0.00204488 0 0.00204488 0 0.0021793 0 0.00614711 0.00676003 0.00481405 0.00518947 0.00481405 0.00518947 0.00324676 0.0035732 0.00518947 0.00564328 0.0035732 0.00389964 0.0068309 0.00608544 0.0054038 0.00481495 0.00608544 0.00501156 0.00481495 0.00400095 0.0054038 0.00481495 0.00361191 0.00322038 0.00481495 0.00400095 0.00322038 0.002679 0.00389964 0.00411008 0.00194982 0.00204513 0.00194982 0.00204513 0 0 0.00204513 0.00217963 0 0 0.00267895 0.00139089 0.00213932 0.00104315 0.00139089 0 0.00104315 0 0.00213932 0.00104315 0.00144861 0.000724307 0.00104315 0 0.000724307 0 0.002679 0.00213933 0.00139091 0.00104316 0.00213933 0.00144861 0.00104316 0.000724307 0.00139091 0.00104316 0 0 0.00104316 0.000724307 0 0 0.00774212 0.00845112 0.00845068 0.0092564 0.00845112 0.00908988 0.0092564 0.00989285 0.00845068 0.0092564 0.00908938 0.0098926 0.0092564 0.00989285 0.0098926 0.0106958 0.00288818 0.00290474 0.00349368 0.00355966 0.00290474 0.0029213 0.00355966 0.00353629 0.00349368 0.00355966 0.00427274 0.00435182 0.00355966 0.00353629 0.00435182 0.00433196 0.0029213 0.00282651 0.00353629 0.00347863 0.00282651 0.00273172 0.00347863 0.0033146 0.00353629 0.00347863 0.00433196 0.00426447 0.00347863 0.0033146 0.00426447 0.00407761 0.00427274 0.00435182 0.00505087 0.00516459 0.00435182 0.00433196 0.00516459 0.00514099 0.00505087 0.00516459 0.00599404 0.00605787 0.00516459 0.00514099 0.00605787 0.00612171 0.00433196 0.00426447 0.00514099 0.00506461 0.00426447 0.00407761 0.00506461 0.00483984 0.00514099 0.00506461 0.00612171 0.00605355 0.00506461 0.00483984 0.00605355 0.00577663 0.00612171 0.00605355 0.00714111 0.00696709 0.00605355 0.00577663 0.00696709 0.00675991 0.00714111 0.00696709 0.0081605 0.00807464 0.00696709 0.00675991 0.00807464 0.00774319 0.0079695 0.008065 0.00892789 0.00919582 0.008065 0.0081605 0.00919582 0.00915824 0.00892789 0.00919582 0.0100148 0.0101558 0.00919582 0.00915824 0.0101558 0.0102968 0.0081605 0.00807464 0.00915824 0.00908883 0.00807464 0.00774319 0.00908883 0.00868864 0.00915824 0.00908883 0.0102968 0.0100301 0.00908883 0.00868864 0.0100301 0.00976337 0.00273172 0.00253199 0.0033146 0.00311795 0.00253199 0.00233225 0.00311795 0.0028127 0.0033146 0.00311795 0.00407761 0.00382846 0.00311795 0.0028127 0.00382846 0.00346208 0.00233225 0.00199576 0.0028127 0.00246844 0.00199576 0.00165927 0.00246844 0.00208686 0.0028127 0.00246844 0.00346208 0.00304771 0.00246844 0.00208686 0.00304771 0.00251446 0.00407761 0.00382846 0.00483984 0.00455943 0.00382846 0.00346208 0.00455943 0.00410908 0.00483984 0.00455943 0.00577663 0.005362 0.00455943 0.00410908 0.005362 0.00494736 0.00346208 0.00304771 0.00410908 0.00363224 0.00304771 0.00251446 0.00363224 0.00300044 0.00410908 0.00363224 0.00494736 0.00427729 0.00363224 0.00300044 0.00427729 0.00360722 0.00774319 0.00718532 0.00868864 0.00822053 0.00718532 0.00662746 0.00822053 0.00749896 0.00868864 0.00822053 0.00976337 0.00919914 0.00822053 0.00749896 0.00919914 0.00837046 0.00290477 0.00350125 0.00292139 0.0035676 0.00350125 0.00427545 0.0035676 0.00435456 0.00292139 0.0035676 0.002938 0.00354469 0.0035676 0.00435456 0.00354469 0.00433495 0.00427545 0.00505025 0.00435456 0.00516311 0.00505025 0.00599134 0.00516311 0.00605347 0.00435456 0.00516311 0.00433495 0.0051392 0.00516311 0.00605347 0.0051392 0.00611559 0.002938 0.00354469 0.00284326 0.00348759 0.00354469 0.00433495 0.00348759 0.00426915 0.00284326 0.00348759 0.00274851 0.00332429 0.00348759 0.00426915 0.00332429 0.00408471 0.00433495 0.0051392 0.00426915 0.00506431 0.0051392 0.00611559 0.00506431 0.00604591 0.00426915 0.00506431 0.00408471 0.00484229 0.00506431 0.00604591 0.00484229 0.00578174 0.00796654 0.00892629 0.00806027 0.00919409 0.00892629 0.0100168 0.00919409 0.0101548 0.00806027 0.00919409 0.00815399 0.00915688 0.00919409 0.0101548 0.00915688 0.0102927 0.00611559 0.00713479 0.00604591 0.00697065 0.00713479 0.00815399 0.00697065 0.00806833 0.00604591 0.00697065 0.00578174 0.00668525 0.00697065 0.00806833 0.00668525 0.00773116 0.00815399 0.00915688 0.00806833 0.00908835 0.00915688 0.0102927 0.00908835 0.0100282 0.00806833 0.00908835 0.00773116 0.00869401 0.00908835 0.0100282 0.00869401 0.00976377 0.00274851 0.00332429 0.00254764 0.00312755 0.00332429 0.00408471 0.00312755 0.0038361 0.00254764 0.00312755 0.00234677 0.00282131 0.00312755 0.0038361 0.00282131 0.0034654 0.00408471 0.00484229 0.0038361 0.00455642 0.00484229 0.00578174 0.00455642 0.00545131 0.0038361 0.00455642 0.0034654 0.00411742 0.00455642 0.00545131 0.00411742 0.00492978 0.00234677 0.00282131 0.00200792 0.00247469 0.00282131 0.0034654 0.00247469 0.00305049 0.00200792 0.00247469 0.00166907 0.00209237 0.00247469 0.00305049 0.00209237 0.00251568 0.0034654 0.00411742 0.00305049 0.00363118 0.00411742 0.00492978 0.00363118 0.00426668 0.00305049 0.00363118 0.00251568 0.00299771 0.00363118 0.00426668 0.00299771 0.00360359 0.00578174 0.00668525 0.00545131 0.00629368 0.00668525 0.00773116 0.00629368 0.00730486 0.00545131 0.00629368 0.00492978 0.00576718 0.00629368 0.00730486 0.00576718 0.00660457 0.00773116 0.00869401 0.00730486 0.00821546 0.00869401 0.00976377 0.00821546 0.0092042 0.00730486 0.00821546 0.00660457 0.00749145 0.00821546 0.0092042 0.00749145 0.00837832 0.00266111 0.00277465 0.00329312 0.0033983 0.00277465 0.00288818 0.0033983 0.00349368 0.00329312 0.0033983 0.00392512 0.00414849 0.0033983 0.00349368 0.00414849 0.00427274 0.00340831 0.00366672 0.0040655 0.00436717 0.00366672 0.00392512 0.00436717 0.00465088 0.0040655 0.00436717 0.00472269 0.00516426 0.00436717 0.00465088 0.00516426 0.00550488 0.00392512 0.00414849 0.00465088 0.00489842 0.00414849 0.00427274 0.00489842 0.00505087 0.00465088 0.00489842 0.00550488 0.00581591 0.00489842 0.00505087 0.00581591 0.00599404 0.00472269 0.00516426 0.00547538 0.00592529 0.00516426 0.00550488 0.00592529 0.00633139 0.00547538 0.00592529 0.00622807 0.00680498 0.00592529 0.00633139 0.00680498 0.00727467 0.00550488 0.00581591 0.00633139 0.00668321 0.00581591 0.00599404 0.00668321 0.00698177 0.00633139 0.00668321 0.00727467 0.0077034 0.00668321 0.00698177 0.0077034 0.0079695 0.00622807 0.00680498 0.00698509 0.00762843 0.00680498 0.00727467 0.00762843 0.00814691 0.00698509 0.00762843 0.00774212 0.00845112 0.00762843 0.00814691 0.00845112 0.00908988 0.00727467 0.0077034 0.00814691 0.00865373 0.0077034 0.0079695 0.00865373 0.00892789 0.00814691 0.00865373 0.00908988 0.00955234 0.00865373 0.00892789 0.00955234 0.0100148 0.00251446 0.00191954 0.00300044 0.00233769 0.00191954 0.00132463 0.00233769 0.00160925 0.00300044 0.00233769 0.00360722 0.00282196 0.00233769 0.00160925 0.00282196 0.00189387 0.00360722 0.00282196 0.00422787 0.00324692 0.00282196 0.00189387 0.00324692 0.00223272 0.00422787 0.00324692 0.00484852 0.00380456 0.00324692 0.00223272 0.00380456 0.00257157 0.00484852 0.00380456 0.00549913 0.00427157 0.00380456 0.00257157 0.00427157 0.00287768 0.00549913 0.00427157 0.00614974 0.00481556 0.00427157 0.00287768 0.00481556 0.003248 0.00257157 0.00128578 0.00287768 0.00149955 0.00128578 0 0.00149955 0 0.00287768 0.00149955 0.003248 0.001624 0.00149955 0 0.001624 0 0.00341089 0.00406648 0.00366911 0.00436754 0.00406648 0.00472207 0.00436754 0.00516336 0.00366911 0.00436754 0.00392733 0.00465106 0.00436754 0.00516336 0.00465106 0.0055036 0.00267634 0.00330184 0.00279056 0.00340557 0.00330184 0.00392733 0.00340557 0.00415141 0.00279056 0.00340557 0.00290477 0.00350125 0.00340557 0.00415141 0.00350125 0.00427545 0.00392733 0.00465106 0.00415141 0.00489819 0.00465106 0.0055036 0.00489819 0.00581421 0.00415141 0.00489819 0.00427545 0.00505025 0.00489819 0.00581421 0.00505025 0.00599134 0.00472207 0.00547467 0.00516336 0.00592399 0.00547467 0.00622727 0.00592399 0.00680372 0.00516336 0.00592399 0.0055036 0.00632972 0.00592399 0.00680372 0.00632972 0.00727305 0.00622727 0.00698469 0.00680372 0.00762761 0.00698469 0.00774212 0.00762761 0.00845068 0.00680372 0.00762761 0.00727305 0.00814585 0.00762761 0.00845068 0.00814585 0.00908938 0.0055036 0.00632972 0.00581421 0.00668109 0.00632972 0.00727305 0.00668109 0.00770139 0.00581421 0.00668109 0.00599134 0.00697894 0.00668109 0.00770139 0.00697894 0.00796654 0.00727305 0.00814585 0.00770139 0.00865241 0.00814585 0.00908938 0.00865241 0.00955309 0.00770139 0.00865241 0.00796654 0.00892629 0.00865241 0.00955309 0.00892629 0.0100168 0.00251568 0.00299771 0.00192006 0.00233647 0.00299771 0.00360359 0.00233647 0.00281895 0.00192006 0.00233647 0.00132443 0.00160801 0.00233647 0.00281895 0.00160801 0.00189158 0.00360359 0.00422458 0.00281895 0.00324376 0.00422458 0.00484556 0.00324376 0.00380106 0.00281895 0.00324376 0.00189158 0.00223013 0.00324376 0.00380106 0.00223013 0.00256868 0.00484556 0.00549634 0.00380106 0.00426859 0.00549634 0.00614711 0.00426859 0.00481405 0.00380106 0.00426859 0.00256868 0.00287554 0.00426859 0.00481405 0.00287554 0.00324676 0.00256868 0.00287554 0.00128434 0.00149865 0.00287554 0.00324676 0.00149865 0.00162338 0.00128434 0.00149865 0 0 0.00149865 0.00162338 0 0 0.0108709 0.0103673 0.0111717 0.0107976 0.0103673 0.00986374 0.0107976 0.0101991 0.0111717 0.0107976 0.0114725 0.0110661 0.0107976 0.0101991 0.0110661 0.0105345 0.0114725 0.0110661 0.0117658 0.0113789 0.0110661 0.0105345 0.0113789 0.010731 0.0117658 0.0113789 0.0120592 0.0115498 0.0113789 0.010731 0.0115498 0.0109274 0.0120592 0.0115498 0.0121914 0.0117876 0.0115498 0.0109274 0.0117876 0.0111196 0.0121914 0.0117876 0.0123236 0.0118768 0.0117876 0.0111196 0.0118768 0.0113117 0.0131341 0.0127289 0.0132004 0.0129063 0.0127289 0.0123236 0.0129063 0.0124199 0.0132004 0.0129063 0.0132667 0.0128983 0.0129063 0.0124199 0.0128983 0.0124344 0.0123236 0.0118768 0.0124199 0.0119888 0.0118768 0.0113117 0.0119888 0.01132 0.0124199 0.0119888 0.0124344 0.0119652 0.0119888 0.01132 0.0119652 0.0113284 0.0132667 0.0128983 0.013173 0.0128814 0.0128983 0.0124344 0.0128814 0.0124022 0.013173 0.0128814 0.0130794 0.0127097 0.0128814 0.0124022 0.0127097 0.012235 0.0124344 0.0119652 0.0124022 0.0119671 0.0119652 0.0113284 0.0119671