# vtk DataFile Version 3.0
#This file was generated by the deal.II library on 2021/4/23 at 0:45:42
ASCII
DATASET UNSTRUCTURED_GRID

FIELD FieldData 2
CYCLE 1 1 int
94
TIME 1 1 double
0.188
POINTS 6912 double
-1 -1 0
-0.75 -1 0
-1 -0.75 0
-0.75 -0.75 0
-0.75 -1 0
-0.5 -1 0
-0.75 -0.75 0
-0.5 -0.75 0
-1 -0.75 0
-0.75 -0.75 0
-1 -0.5 0
-0.75 -0.5 0
-0.75 -0.75 0
-0.5 -0.75 0
-0.75 -0.5 0
-0.5 -0.5 0
-0.5 -1 0
-0.25 -1 0
-0.5 -0.75 0
-0.25 -0.75 0
-0.5 -0.75 0
-0.25 -0.75 0
-0.5 -0.5 0
-0.25 -0.5 0
0.125 -0.75 0
0.25 -0.75 0
0.125 -0.625 0
0.25 -0.625 0
0 -0.625 0
0.125 -0.625 0
0 -0.5 0
0.125 -0.5 0
0.125 -0.625 0
0.25 -0.625 0
0.125 -0.5 0
0.25 -0.5 0
0 -0.5 0
0.125 -0.5 0
0 -0.375 0
0.125 -0.375 0
0.125 -0.5 0
0.25 -0.5 0
0.125 -0.375 0
0.25 -0.375 0
0 -0.375 0
0.125 -0.375 0
0 -0.25 0
0.125 -0.25 0
0.125 -0.375 0
0.25 -0.375 0
0.125 -0.25 0
0.25 -0.25 0
-1 0 0
-0.875 0 0
-1 0.125 0
-0.875 0.125 0
-0.875 0 0
-0.75 0 0
-0.875 0.125 0
-0.75 0.125 0
-1 0.125 0
-0.875 0.125 0
-1 0.25 0
-0.875 0.25 0
-0.75 -0.5 0
-0.625 -0.5 0
-0.75 -0.375 0
-0.625 -0.375 0
-0.625 -0.5 0
-0.5 -0.5 0
-0.625 -0.375 0
-0.5 -0.375 0
0.75 -1 0
0.875 -1 0
0.75 -0.875 0
0.875 -0.875 0
0.875 -1 0
1 -1 0
0.875 -0.875 0
1 -0.875 0
0.75 -0.875 0
0.875 -0.875 0
0.75 -0.75 0
0.875 -0.75 0
0.875 -0.875 0
1 -0.875 0
0.875 -0.75 0
1 -0.75 0
-0.25 -0.75 0
-0.125 -0.75 0
-0.25 -0.625 0
-0.125 -0.625 0
-0.125 -0.75 0
0 -0.75 0
-0.125 -0.625 0
0 -0.625 0
-0.25 -0.625 0
-0.125 -0.625 0
-0.25 -0.5 0
-0.125 -0.5 0
-1 -0.25 0
-0.875 -0.25 0
-1 -0.125 0
-0.875 -0.125 0
-0.875 -0.25 0
-0.75 -0.25 0
-0.875 -0.125 0
-0.75 -0.125 0
-1 -0.125 0
-0.875 -0.125 0
-1 0 0
-0.875 0 0
-0.5 -0.5 0
-0.375 -0.5 0
-0.5 -0.375 0
-0.375 -0.375 0
-0.375 -0.5 0
-0.25 -0.5 0
-0.375 -0.375 0
-0.25 -0.375 0
-0.25 -0.5 0
-0.125 -0.5 0
-0.25 -0.375 0
-0.125 -0.375 0
-0.125 -0.5 0
0 -0.5 0
-0.125 -0.375 0
0 -0.375 0
-0.125 -0.375 0
0 -0.375 0
-0.125 -0.25 0
0 -0.25 0
0 -1 0
0.125 -1 0
0 -0.875 0
0.125 -0.875 0
0.125 -1 0
0.25 -1 0
0.125 -0.875 0
0.25 -0.875 0
0.125 -0.875 0
0.25 -0.875 0
0.125 -0.75 0
0.25 -0.75 0
0.25 -1 0
0.375 -1 0
0.25 -0.875 0
0.375 -0.875 0
0.375 -1 0
0.5 -1 0
0.375 -0.875 0
0.5 -0.875 0
0.5 -1 0
0.625 -1 0
0.5 -0.875 0
0.625 -0.875 0
0.625 -1 0
0.75 -1 0
0.625 -0.875 0
0.75 -0.875 0
0.75 -0.25 0
0.875 -0.25 0
0.75 -0.125 0
0.875 -0.125 0
0.875 -0.25 0
1 -0.25 0
0.875 -0.125 0
1 -0.125 0
0.75 -0.125 0
0.875 -0.125 0
0.75 0 0
0.875 0 0
0.875 -0.125 0
1 -0.125 0
0.875 0 0
1 0 0
-0.125 -0.25 0
0 -0.25 0
-0.125 -0.125 0
0 -0.125 0
-1 0.25 0
-0.875 0.25 0
-1 0.375 0
-0.875 0.375 0
-0.875 0.25 0
-0.75 0.25 0
-0.875 0.375 0
-0.75 0.375 0
-1 0.375 0
-0.875 0.375 0
-1 0.5 0
-0.875 0.5 0
0.875 -0.75 0
1 -0.75 0
0.875 -0.625 0
1 -0.625 0
0.875 -0.625 0
1 -0.625 0
0.875 -0.5 0
1 -0.5 0
-1 0.875 0
-0.875 0.875 0
-1 1 0
-0.875 1 0
0.25 -0.125 0
0.375 -0.125 0
0.25 0 0
0.375 0 0
0.375 -0.125 0
0.5 -0.125 0
0.375 0 0
0.5 0 0
0.875 -0.5 0
1 -0.5 0
0.875 -0.375 0
1 -0.375 0
0.875 -0.375 0
1 -0.375 0
0.875 -0.25 0
1 -0.25 0
0.5 -0.125 0
0.625 -0.125 0
0.5 0 0
0.625 0 0
0.625 -0.125 0
0.75 -0.125 0
0.625 0 0
0.75 0 0
-0.25 -1 0
-0.125 -1 0
-0.25 -0.875 0
-0.125 -0.875 0
-0.125 -1 0
0 -1 0
-0.125 -0.875 0
0 -0.875 0
-0.25 -0.875 0
-0.125 -0.875 0
-0.25 -0.75 0
-0.125 -0.75 0
-0.125 -0.875 0
0 -0.875 0
-0.125 -0.75 0
0 -0.75 0
-1 -0.5 0
-0.875 -0.5 0
-1 -0.375 0
-0.875 -0.375 0
-0.875 -0.5 0
-0.75 -0.5 0
-0.875 -0.375 0
-0.75 -0.375 0
-1 -0.375 0
-0.875 -0.375 0
-1 -0.25 0
-0.875 -0.25 0
-0.875 -0.375 0
-0.75 -0.375 0
-0.875 -0.25 0
-0.75 -0.25 0
-0.625 0.25 0
-0.5625 0.25 0
-0.625 0.3125 0
-0.5625 0.3125 0
-0.1875 0.125 0
-0.125 0.125 0
-0.1875 0.1875 0
-0.125 0.1875 0
-0.1875 0.1875 0
-0.125 0.1875 0
-0.1875 0.25 0
-0.125 0.25 0
-0.875 0.75 0
-0.8125 0.75 0
-0.875 0.8125 0
-0.8125 0.8125 0
-0.875 0.8125 0
-0.8125 0.8125 0
-0.875 0.875 0
-0.8125 0.875 0
-0.5 0.125 0
-0.4375 0.125 0
-0.5 0.1875 0
-0.4375 0.1875 0
-0.5 0.1875 0
-0.4375 0.1875 0
-0.5 0.25 0
-0.4375 0.25 0
-0.3125 0.1875 0
-0.25 0.1875 0
-0.3125 0.25 0
-0.25 0.25 0
-0.875 0.5 0
-0.8125 0.5 0
-0.875 0.5625 0
-0.8125 0.5625 0
-0.875 0.5625 0
-0.8125 0.5625 0
-0.875 0.625 0
-0.8125 0.625 0
-0.875 0.625 0
-0.8125 0.625 0
-0.875 0.6875 0
-0.8125 0.6875 0
-0.8125 0.625 0
-0.75 0.625 0
-0.8125 0.6875 0
-0.75 0.6875 0
-0.875 0.6875 0
-0.8125 0.6875 0
-0.875 0.75 0
-0.8125 0.75 0
-0.75 0.875 0
-0.6875 0.875 0
-0.75 0.9375 0
-0.6875 0.9375 0
-0.75 0.9375 0
-0.6875 0.9375 0
-0.75 1 0
-0.6875 1 0
-0.5625 0.0625 0
-0.5 0.0625 0
-0.5625 0.125 0
-0.5 0.125 0
-0.75 0.125 0
-0.6875 0.125 0
-0.75 0.1875 0
-0.6875 0.1875 0
-0.6875 0.125 0
-0.625 0.125 0
-0.6875 0.1875 0
-0.625 0.1875 0
-0.75 0.1875 0
-0.6875 0.1875 0
-0.75 0.25 0
-0.6875 0.25 0
-0.6875 0.1875 0
-0.625 0.1875 0
-0.6875 0.25 0
-0.625 0.25 0
-0.625 0.125 0
-0.5625 0.125 0
-0.625 0.1875 0
-0.5625 0.1875 0
-0.5625 0.125 0
-0.5 0.125 0
-0.5625 0.1875 0
-0.5 0.1875 0
-0.625 0.1875 0
-0.5625 0.1875 0
-0.625 0.25 0
-0.5625 0.25 0
-0.5625 0.1875 0
-0.5 0.1875 0
-0.5625 0.25 0
-0.5 0.25 0
-0.75 -0.25 0
-0.6875 -0.25 0
-0.75 -0.1875 0
-0.6875 -0.1875 0
-0.6875 -0.25 0
-0.625 -0.25 0
-0.6875 -0.1875 0
-0.625 -0.1875 0
-0.75 -0.1875 0
-0.6875 -0.1875 0
-0.75 -0.125 0
-0.6875 -0.125 0
-0.6875 -0.1875 0
-0.625 -0.1875 0
-0.6875 -0.125 0
-0.625 -0.125 0
-0.5 -0.25 0
-0.4375 -0.25 0
-0.5 -0.1875 0
-0.4375 -0.1875 0
-0.4375 -0.25 0
-0.375 -0.25 0
-0.4375 -0.1875 0
-0.375 -0.1875 0
-0.5 -0.1875 0
-0.4375 -0.1875 0
-0.5 -0.125 0
-0.4375 -0.125 0
-0.4375 -0.1875 0
-0.375 -0.1875 0
-0.4375 -0.125 0
-0.375 -0.125 0
-0.875 0.375 0
-0.8125 0.375 0
-0.875 0.4375 0
-0.8125 0.4375 0
-0.8125 0.375 0
-0.75 0.375 0
-0.8125 0.4375 0
-0.75 0.4375 0
-0.875 0.4375 0
-0.8125 0.4375 0
-0.875 0.5 0
-0.8125 0.5 0
-0.8125 0.4375 0
-0.75 0.4375 0
-0.8125 0.5 0
-0.75 0.5 0
-0.75 0.25 0
-0.6875 0.25 0
-0.75 0.3125 0
-0.6875 0.3125 0
-0.6875 0.25 0
-0.625 0.25 0
-0.6875 0.3125 0
-0.625 0.3125 0
-0.75 0.3125 0
-0.6875 0.3125 0
-0.75 0.375 0
-0.6875 0.375 0
-0.25 0 0
-0.1875 0 0
-0.25 0.0625 0
-0.1875 0.0625 0
-0.1875 0 0
-0.125 0 0
-0.1875 0.0625 0
-0.125 0.0625 0
-0.25 0.0625 0
-0.1875 0.0625 0
-0.25 0.125 0
-0.1875 0.125 0
-0.1875 0.0625 0
-0.125 0.0625 0
-0.1875 0.125 0
-0.125 0.125 0
-0.125 0.125 0
-0.0625 0.125 0
-0.125 0.1875 0
-0.0625 0.1875 0
-0.0625 0.125 0
0 0.125 0
-0.0625 0.1875 0
0 0.1875 0
-0.125 0.1875 0
-0.0625 0.1875 0
-0.125 0.25 0
-0.0625 0.25 0
-0.0625 0.1875 0
0 0.1875 0
-0.0625 0.25 0
0 0.25 0
-1 0.75 0
-0.9375 0.75 0
-1 0.8125 0
-0.9375 0.8125 0
-0.9375 0.75 0
-0.875 0.75 0
-0.9375 0.8125 0
-0.875 0.8125 0
-1 0.8125 0
-0.9375 0.8125 0
-1 0.875 0
-0.9375 0.875 0
-0.9375 0.8125 0
-0.875 0.8125 0
-0.9375 0.875 0
-0.875 0.875 0
-0.875 0.875 0
-0.8125 0.875 0
-0.875 0.9375 0
-0.8125 0.9375 0
-0.8125 0.875 0
-0.75 0.875 0
-0.8125 0.9375 0
-0.75 0.9375 0
-0.875 0.9375 0
-0.8125 0.9375 0
-0.875 1 0
-0.8125 1 0
-0.8125 0.9375 0
-0.75 0.9375 0
-0.8125 1 0
-0.75 1 0
-0.5 0 0
-0.4375 0 0
-0.5 0.0625 0
-0.4375 0.0625 0
-0.4375 0 0
-0.375 0 0
-0.4375 0.0625 0
-0.375 0.0625 0
-0.5 0.0625 0
-0.4375 0.0625 0
-0.5 0.125 0
-0.4375 0.125 0
-0.4375 0.0625 0
-0.375 0.0625 0
-0.4375 0.125 0
-0.375 0.125 0
-0.375 0 0
-0.3125 0 0
-0.375 0.0625 0
-0.3125 0.0625 0
-0.3125 0 0
-0.25 0 0
-0.3125 0.0625 0
-0.25 0.0625 0
-0.375 0.0625 0
-0.3125 0.0625 0
-0.375 0.125 0
-0.3125 0.125 0
-0.3125 0.0625 0
-0.25 0.0625 0
-0.3125 0.125 0
-0.25 0.125 0
-0.75 0.75 0
-0.6875 0.75 0
-0.75 0.8125 0
-0.6875 0.8125 0
-1 0.5 0
-0.9375 0.5 0
-1 0.5625 0
-0.9375 0.5625 0
-0.9375 0.5 0
-0.875 0.5 0
-0.9375 0.5625 0
-0.875 0.5625 0
-1 0.5625 0
-0.9375 0.5625 0
-1 0.625 0
-0.9375 0.625 0
-0.9375 0.5625 0
-0.875 0.5625 0
-0.9375 0.625 0
-0.875 0.625 0
-1 0.625 0
-0.9375 0.625 0
-1 0.6875 0
-0.9375 0.6875 0
-0.9375 0.625 0
-0.875 0.625 0
-0.9375 0.6875 0
-0.875 0.6875 0
-1 0.6875 0
-0.9375 0.6875 0
-1 0.75 0
-0.9375 0.75 0
-0.9375 0.6875 0
-0.875 0.6875 0
-0.9375 0.75 0
-0.875 0.75 0
-0.75 -0.0625 0
-0.6875 -0.0625 0
-0.75 0 0
-0.6875 0 0
-0.625 -0.125 0
-0.5625 -0.125 0
-0.625 -0.0625 0
-0.5625 -0.0625 0
-0.5625 -0.125 0
-0.5 -0.125 0
-0.5625 -0.0625 0
-0.5 -0.0625 0
-0.625 -0.0625 0
-0.5625 -0.0625 0
-0.625 0 0
-0.5625 0 0
-0.375 -0.25 0
-0.3125 -0.25 0
-0.375 -0.1875 0
-0.3125 -0.1875 0
-0.3125 -0.25 0
-0.25 -0.25 0
-0.3125 -0.1875 0
-0.25 -0.1875 0
-0.375 -0.1875 0
-0.3125 -0.1875 0
-0.375 -0.125 0
-0.3125 -0.125 0
-0.3125 -0.1875 0
-0.25 -0.1875 0
-0.3125 -0.125 0
-0.25 -0.125 0
0 -0.75 0
0.0625 -0.75 0
0 -0.6875 0
0.0625 -0.6875 0
0.0625 -0.75 0
0.125 -0.75 0
0.0625 -0.6875 0
0.125 -0.6875 0
0 -0.6875 0
0.0625 -0.6875 0
0 -0.625 0
0.0625 -0.625 0
0.0625 -0.6875 0
0.125 -0.6875 0
0.0625 -0.625 0
0.125 -0.625 0
-0.75 -0.375 0
-0.6875 -0.375 0
-0.75 -0.3125 0
-0.6875 -0.3125 0
-0.6875 -0.375 0
-0.625 -0.375 0
-0.6875 -0.3125 0
-0.625 -0.3125 0
-0.75 -0.3125 0
-0.6875 -0.3125 0
-0.75 -0.25 0
-0.6875 -0.25 0
-0.6875 -0.3125 0
-0.625 -0.3125 0
-0.6875 -0.25 0
-0.625 -0.25 0
-0.625 -0.25 0
-0.5625 -0.25 0
-0.625 -0.1875 0
-0.5625 -0.1875 0
-0.5625 -0.25 0
-0.5 -0.25 0
-0.5625 -0.1875 0
-0.5 -0.1875 0
-0.625 -0.1875 0
-0.5625 -0.1875 0
-0.625 -0.125 0
-0.5625 -0.125 0
-0.125 -0.625 0
-0.0625 -0.625 0
-0.125 -0.5625 0
-0.0625 -0.5625 0
-0.0625 -0.625 0
0 -0.625 0
-0.0625 -0.5625 0
0 -0.5625 0
-0.125 -0.5625 0
-0.0625 -0.5625 0
-0.125 -0.5 0
-0.0625 -0.5 0
-0.0625 -0.5625 0
0 -0.5625 0
-0.0625 -0.5 0
0 -0.5 0
-0.25 -0.375 0
-0.1875 -0.375 0
-0.25 -0.3125 0
-0.1875 -0.3125 0
-0.1875 -0.375 0
-0.125 -0.375 0
-0.1875 -0.3125 0
-0.125 -0.3125 0
-0.25 -0.3125 0
-0.1875 -0.3125 0
-0.25 -0.25 0
-0.1875 -0.25 0
-0.1875 -0.3125 0
-0.125 -0.3125 0
-0.1875 -0.25 0
-0.125 -0.25 0
-0.875 -0.125 0
-0.8125 -0.125 0
-0.875 -0.0625 0
-0.8125 -0.0625 0
-0.8125 -0.125 0
-0.75 -0.125 0
-0.8125 -0.0625 0
-0.75 -0.0625 0
-0.875 -0.0625 0
-0.8125 -0.0625 0
-0.875 0 0
-0.8125 0 0
-0.8125 -0.0625 0
-0.75 -0.0625 0
-0.8125 0 0
-0.75 0 0
0 -0.875 0
0.0625 -0.875 0
0 -0.8125 0
0.0625 -0.8125 0
0.0625 -0.875 0
0.125 -0.875 0
0.0625 -0.8125 0
0.125 -0.8125 0
0 -0.8125 0
[...]
POINT_DATA 6912
SCALARS U double 1
LOOKUP_TABLE default
0 0 0 4.00281e-05 0 0 4.00281e-05 0.000107014 0 4.00281e-05 0 8.66245e-05 4.00281e-05 0.000107014 8.66245e-05 0.000203468 0 0 0.000107014 0.000218111 0.000107014 0.000218111 0.000203468 0.00035698 0.000413689 0.000457739 0.000545848 0.000602075 0.000467213 0.000545848 0.000525075 0.000602533 0.000545848 0.000602075 0.000602533 0.000658468 0.000525075 0.000602533 0.000522939 0.000575985 0.000602533 0.000658468 0.000575985 0.000617261 0.000522939 0.000575985 0.000468431 0.000465215 0.000575985 0.000617261 0.000465215 0.000480534 0 0.000326093 0 0.000530664 0.000326093 0.000647146 0.000530664 0.00105059 0 0.000530664 0 0.000787652 8.66245e-05 0.000145046 0.000132435 0.000206179 0.000145046 0.000203468 0.000206179 0.000280277 0 0 0.000152497 7.98795e-05 0 0 7.98795e-05 0 0.000152497 7.98795e-05 0.000282808 0.000149958 7.98795e-05 0 0.000149958 0 0.000218111 0.000280713 0.000287546 0.000379527 0.000280713 0.000351312 0.000379527 0.000467213 0.000287546 0.000379527 0.00035698 0.00043896 0 0.000107832 0 0.000187993 0.000107832 0.000215608 0.000187993 0.000376775 0 0.000187993 0 0.000326093 0.000203468 0.000280224 0.000280277 0.00035003 0.000280224 0.00035698 0.00035003 0.000412377 0.00035698 0.00043896 0.000412377 0.000467926 0.00043896 0.000525075 0.000467926 0.000522939 0.000467926 0.000522939 0.000484912 0.000468431 0 0 0.00018799 0.000222229 0 0 0.000222229 0.000246835 0.000222229 0.000246835 0.000413689 0.000457739 0 0 0.000246835 0.000254303 0 0 0.000254303 0.000242793 0 0 0.000242793 0.000208171 0 0 0.000208171 0.000152497 0.000286654 0.000151932 0.000155156 8.12094e-05 0.000151932 0 8.12094e-05 0 0.000155156 8.12094e-05 0 0 8.12094e-05 0 0 0 0.000484912 0.000468431 0.000522897 0.000355157 0 0.000787652 0 0.00105235 0.000787652 0.00156491 0.00105235 0.00208538 0 0.00105235 0 0.00123651 0.000149958 0 0.000197836 0 0.000197836 0 0.000215523 0 0 0.000589305 0 0 0.000265376 0.000263296 0 0 0.000263296 0.000248305 0 0 0.000215523 0 0.0001993 0 0.0001993 0 0.000151932 0 0.000248305 0.000212074 0 0 0.000212074 0.000155156 0 0 0 0 0.000109055 0.000150069 0 0 0.000150069 0.00018799 0.000109055 0.000150069 0.000218111 0.000280713 0.000150069 0.00018799 0.000280713 0.000351312 0 4.33122e-05 0 6.43036e-05 4.33122e-05 8.66245e-05 6.43036e-05 0.000132435 0 6.43036e-05 0 0.000107832 6.43036e-05 0.000132435 0.000107832 0.000215608 0.00225648 0.00253223 0.00264761 0.00297127 0.00127984 0.000907644 0.00156261 0.00110371 0.00156261 0.00110371 0.00187994 0.00132529 0.00103308 0.00155129 0.000835395 0.00125525 0.000835395 0.00125525 0.000589305 0.0008816 0.00183342 0.00189787 0.00226254 0.00233871 0.00226254 0.00233871 0.00272928 0.00282136 0.00218013 0.00192765 0.00262637 0.00232064 0.00123651 0.0018486 0.00126842 0.00190277 0.00126842 0.00190277 0.00124947 0.00187546 0.00124947 0.00187546 0.00117165 0.00175975 0.00187546 0.00249028 0.00175975 0.00233696 0.00117165 0.00175975 0.00103308 0.00155129 0.00117363 0.00145472 0.000605213 0.000751905 0.000605213 0.000751905 0 0 0.00135003 0.0014559 0.00170249 0.00183342 0.00105059 0.00129889 0.00129762 0.00160107 0.00129889 0.00152012 0.00160107 0.00187473 0.00129762 0.00160107 0.00156491 0.00192674 0.00160107 0.00187473 0.00192674 0.00225648 0.00152012 0.00170249 0.00187473 0.00210153 0.00170249 0.00183342 0.00210153 0.00226254 0.00187473 0.00210153 0.00225648 0.00253223 0.00210153 0.00226254 0.00253223 0.00272928 0.000215608 0.000274829 0.000296192 0.000358516 0.000274829 0.000325978 0.000358516 0.000423891 0.000296192 0.000358516 0.000376775 0.000469745 0.000358516 0.000423891 0.000469745 0.000551554 0.000417033 0.000452523 0.000530467 0.000565985 0.000452523 0.000478483 0.000565985 0.000586024 0.000530467 0.000565985 0.000680239 0.000716962 0.000565985 0.000586024 0.000716962 0.000730731 0.00105235 0.00156887 0.00114443 0.00173166 0.00156887 0.00208538 0.00173166 0.00229987 0.00114443 0.00173166 0.00123651 0.0018486 0.00173166 0.00229987 0.0018486 0.00245539 0.00156491 0.00192674 0.00182515 0.00225869 0.00192674 0.00225648 0.00225869 0.00264761 0.00182515 0.00225869 0.00208538 0.00257224 0.00101486 0.000850148 0.00126666 0.00104015 0.000850148 0.000636161 0.00104015 0.00074822 0.00126666 0.00104015 0.00157284 0.00127984 0.00104015 0.00074822 0.00127984 0.000907644 0.000907644 0.000473409 0.00110371 0.000571778 0.000473409 0 0.000571778 0 0.00110371 0.000571778 0.00132529 0.000685391 0.000571778 0 0.000685391 0 0 0.00051531 0 0.000417278 0.00051531 0.00103308 0.000417278 0.000835395 0 0.000417278 0 0.000294653 0.000417278 0.000835395 0.000294653 0.000589305 0.000589305 0.0008816 0.000294653 0.000454211 0.0008816 0.00117363 0.000454211 0.000605213 0.000294653 0.000454211 0 0 0.000454211 0.000605213 0 0 0.00113678 0.0011832 0.0014559 0.00150987 0.0011832 0.00118087 0.00150987 0.00150087 0.0014559 0.00150987 0.00183342 0.00189787 0.00150987 0.00150087 0.00189787 0.00188276 0.00118087 0.00112555 0.00150087 0.00142058 0.00112555 0.00101486 0.00142058 0.00126666 0.00150087 0.00142058 0.00188276 0.00177449 0.00142058 0.00126666 0.00177449 0.00157284 0.00206119 0.00255309 0.00166903 0.00206698 0 0.000618256 0 0.000633722 0.000618256 0.00123651 0.000633722 0.00126842 0 0.000633722 0 0.000623757 0.000633722 0.00126842 0.000623757 0.00124947 0 0.000623757 0 0.000584846 0.000623757 0.00124947 0.000584846 0.00117165 0 0.000584846 0 0.00051531 0.000584846 0.00117165 0.00051531 0.00103308 0.000496631 0.000615162 0.000647146 0.000802049 0.000551554 0.000624471 0.000721886 0.000812342 0.000624471 0.000680239 0.000812342 0.00088015 0.000721886 0.000812342 0.000938662 0.00105251 0.000478483 0.000494071 0.000586024 0.00058819 0.000494071 0.000499446 0.00058819 0.000573616 0.000586024 0.00058819 0.000730731 0.000715717 0.00058819 0.000573616 0.000715717 0.000676458 0.000351312 0.000380416 0.000409262 0.000451076 0.000380416 0.000413689 0.000451076 0.000479768 0.000409262 0.000451076 0.000467213 0.000506531 0.000451076 0.000479768 0.000506531 0.000545848 0.000132435 0.000169307 0.000174022 0.00021356 0.000169307 0.000206179 0.00021356 0.000256958 0.000174022 0.00021356 0.000215608 0.000274829 0.00021356 0.000256958 0.000274829 0.000325978 0.000325978 0.000375673 0.000423891 0.000479899 0.000375673 0.000417033 0.000479899 0.000530467 0.000423891 0.000479899 0.000551554 0.000624471 0.000379527 0.00042337 0.000409243 0.000457512 0.00042337 0.000467213 0.000457512 0.000496144 0.000409243 0.000457512 0.00043896 0.000482017 0.000457512 0.000496144 0.000482017 0.000525075 0.000412377 0.000440152 0.000449015 0.00046418 0.000440152 0.000467926 0.00046418 0.000476419 0.000449015 0.00046418 0.000499446 0.000495845 0.00046418 0.000476419 0.000495845 0.000484912 0.000187993 0.000282384 0.000257043 0.000374726 0.000282384 0.000376775 0.000374726 0.000496631 0.000257043 0.000374726 0.000326093 0.00048662 0.000374726 0.000496631 0.00048662 0.000647146 0.00018799 0.00020511 0.000269651 0.000298084 0.00020511 0.000222229 0.000298084 0.000317959 0.000269651 0.000298084 0.000351312 0.000380416 0.000298084 0.000317959 0.000380416 0.000413689 0.000246835 0.000250569 0.000352287 0.000365065 0.000250569 0.000254303 0.000365065 0.000367785 0.000352287 0.000365065 0.000457739 0.00046537 0.000365065 0.000367785 0.00046537 0.000469318 0.000254303 0.000248548 0.000367785 0.000363029 0.000248548 0.000242793 0.000363029 0.000350704 0.000367785 0.000363029 0.000469318 0.000463182 0.000363029 0.000350704 0.000463182 0.000447597 0.000530664 0.000790627 0.000659158 0.000979776 0.000790627 0.00105059 0.000979776 0.00129762 0.000659158 0.000979776 0.000787652 0.00117628 0.000979776 0.00129762 0.00117628 0.00156491 0.000522897 0.000439027 0.000565622 0.000402182 0.000439027 0.000355157 0.000402182 0.000250875 0.000647146 0.000802049 0.000848868 0.00102946 0.000848868 0.00102946 0.00105059 0.00129889 0.000457739 0.00046537 0.000529907 0.000548397 0.00046537 0.000469318 0.000548397 0.000552346 0.000529907 0.000548397 0.000602075 0.000611373 0.000548397 0.000552346 0.000611373 0.000616012 0.000206179 0.000243228 0.000256958 0.000297948 0.000243228 0.000280277 0.000297948 0.000337326 0.000256958 0.000297948 0.000325978 0.000375673 0.000297948 0.000337326 0.000375673 0.000417033 0.00111688 0 0.00105137 0 0.00105137 0 0.000929875 0 0.000469318 0.000463182 0.000552346 0.000544943 0.000463182 0.000447597 0.000544943 0.000526654 0.000552346 0.000544943 0.000616012 0.000607651 0.000544943 0.000526654 0.000607651 0.000587163 0.000602075 0.000611373 0.000630272 0.00065113 0.000611373 0.000616012 0.00065113 0.000655053 0.000630272 0.00065113 0.000658468 0.000666879 0.00065113 0.000655053 0.000666879 0.000670938 0.000616012 0.000607651 0.000655053 0.000645807 0.000607651 0.000587163 0.000645807 0.000623878 0.000655053 0.000645807 0.000670938 0.00066117 0.000645807 0.000623878 0.00066117 0.000638494 0.000280277 0.000315153 0.000337326 0.000372906 0.000315153 0.00035003 0.000372906 0.000403248 0.00111188 0.00104975 0 0 0.00104975 0.000928782 0 0 0.00035003 0.000381204 0.000403248 0.000428895 0.000381204 0.000412377 0.000428895 0.000449015 0.000403248 0.000428895 0.000478483 0.000494071 0.000428895 0.000449015 0.000494071 0.000499446 0.000929875 0 0.000753478 0 0.000753478 0 0.000531196 0 0.000928782 0.000753175 0 0 0.000753175 0.000531113 0 0 0.000531196 0 0.000274979 0 0.000531113 0.000274979 0 0 0.000274979 0 0 0 0.000242793 0.000225482 0.000350704 0.00032976 0.000225482 0.000208171 0.00032976 0.000300958 0.000350704 0.00032976 0.000447597 0.000420937 0.00032976 0.000300958 0.000420937 0.000384418 0.000208171 0.000180334 0.000300958 0.000263812 0.000180334 0.000152497 0.000263812 0.000217652 0.000300958 0.000263812 0.000384418 0.000337316 0.000263812 0.000217652 0.000337316 0.000282808 0.000499446 0.000495845 0.000573616 0.000542857 0.000495845 0.000484912 0.000542857 0.000503905 0.000573616 0.000542857 0.000676458 0.000609896 0.000542857 0.000503905 0.000609896 0.000522897 0.000447597 0.000420937 0.000526654 0.000495313 0.000420937 0.000384418 0.000495313 0.00045266 0.000526654 0.000495313 0.000587163 0.000552226 0.000495313 0.00045266 0.000552226 0.000504795 0.000384418 0.000337316 0.00045266 0.000397459 0.000337316 0.000282808 0.000397459 0.000332233 0.00045266 0.000397459 0.000504795 0.000443348 0.000397459 0.000332233 0.000443348 0.000370682 0.000587163 0.000552226 0.000623878 0.000586718 0.000552226 0.000504795 0.000586718 0.000536277 0.000623878 0.000586718 0.000638494 0.000600321 0.000586718 0.000536277 0.000600321 0.000548696 0.000504795 0.000443348 0.000536277 0.000471084 0.000443348 0.000370682 0.000471084 0.000394109 0.000536277 0.000471084 0.000548696 0.000481971 0.000471084 0.000394109 0.000481971 0.000403191 0.000282808 0.000216383 0.000332233 0.000257225 0.000216383 0.000149958 0.000257225 0.000173897 0.000332233 0.000257225 0.000370682 0.00028714 0.000257225 0.000173897 0.00028714 0.000197836 0.000370682 0.00028714 0.000394109 0.000305543 0.00028714 0.000197836 0.000305543 0.00020668 0.000394109 0.000305543 0.000403191 0.000312488 0.000305543 0.00020668 0.000312488 0.000215523 0.000658468 0.000666879 0.000637865 0.000656932 0.000666879 0.000670938 0.000656932 0.000659534 0.000637865 0.000656932 0.000617261 0.000622225 0.000656932 0.000659534 0.000622225 0.000624403 0.000468431 0.000466823 0.000411794 0.000393263 0.000466823 0.000465215 0.000393263 0.000381045 0.000411794 0.000393263 0.000355157 0.000298074 0.000393263 0.000381045 0.000298074 0.000275393 0.000670938 0.00066117 0.000659534 0.000649431 0.00066117 0.000638494 0.000649431 0.000626886 0.000659534 0.000649431 0.000624403 0.000614419 0.000649431 0.000626886 0.000614419 0.000592755 0.000173862 0.000145105 0 0 0.000617261 0.000622225 0.000548898 0.000562942 0.000622225 0.000624403 0.000562942 0.000563566 0.000548898 0.000562942 0.000480534 0.00048247 0.000562942 0.000563566 0.00048247 0.000481848 0.000624403 0.000614419 0.000563566 0.000553822 0.000614419 0.000592755 0.000553822 0.000533951 0.000563566 0.000553822 0.000481848 0.000472961 0.000553822 0.000533951 0.000472961 0.000455547 0.000465215 0.000472875 0.000381045 0.000378935 0.000472875 0.000480534 0.000378935 0.000380693 0.000381045 0.000378935 0.000275393 0.000266123 0.000378935 0.000380693 0.000266123 0.000265376 0.000275393 0.000266123 0.000145105 0.000137482 0.000266123 0.000265376 0.000137482 0.000132688 0.000145105 0.000137482 0 0 0.000137482 0.000132688 0 0 0.000480534 0.00048247 0.000380693 0.000381784 0.00048247 0.000481848 0.000381784 0.00037966 0.000380693 0.000381784 0.000265376 0.000264336 0.000381784 0.00037966 0.000264336 0.000263296 0.000481848 0.000472961 0.00037966 0.000372143 0.000472961 0.000455547 0.000372143 0.000358052 0.00037966 0.000372143 0.000263296 0.000255801 0.000372143 0.000358052 0.000255801 0.000248305 0.000638494 0.000600321 0.000626886 0.00058927 0.000600321 0.000548696 0.00058927 0.00053845 0.000626886 0.00058927 0.000592755 0.000556964 0.00058927 0.00053845 0.000556964 0.000508822 0.000548696 0.000481971 0.00053845 0.000472914 0.000481971 0.000403191 0.000472914 0.000395599 0.00053845 0.000472914 0.000508822 0.000446735 0.000472914 0.000395599 0.000446735 0.00037343 0.000592755 0.000556964 0.000533951 0.000501468 0.000556964 0.000508822 0.000501468 0.000457874 0.000533951 0.000501468 0.000455547 0.000427621 0.000501468 0.000457874 0.000427621 0.000390052 0.000508822 0.000446735 0.000457874 0.000401832 0.000446735 0.00037343 0.000401832 0.000335791 0.000457874 0.000401832 0.000390052 0.000342016 0.000401832 0.000335791 0.000342016 0.000286654 0.000403191 0.000312488 0.000395599 0.000306678 0.000312488 0.000215523 0.000306678 0.000207411 0.000395599 0.000306678 0.00037343 0.000289228 0.000306678 0.000207411 0.000289228 0.0001993 0.00037343 0.000289228 0.000335791 0.000259925 0.000289228 0.0001993 0.000259925 0.000175616 0.000335791 0.000259925 0.000286654 0.000219293 0.000259925 0.000175616 0.000219293 0.000151932 0.000455547 0.000427621 0.000358052 0.000335884 0.000427621 0.000390052 0.000335884 0.000306121 0.000358052 0.000335884 0.000248305 0.00023019 0.000335884 0.000306121 0.00023019 0.000212074 0.000390052 0.000342016 0.000306121 0.000268084 0.000342016 0.000286654 0.000268084 0.000220905 0.000306121 0.000268084 0.000212074 0.000183615 0.000268084 0.000220905 0.000183615 0.000155156 0.00272074 0.00248075 0.00292308 0.00266074 0.00248075 0.00220504 0.00266074 0.00236566 0.00292308 0.00266074 0.00310891 0.00284046 0.00266074 0.00236566 0.00284046 0.00251937 0.00220504 0.00189129 0.00236566 0.00203054 0.00189129 0.00155283 0.00203054 0.00166706 0.00236566 0.00203054 0.00251937 0.00216436 0.00228874 0.00187479 0.00239862 0.00196657 0.00211283 0.00161222 0.00215308 0.00164582 0.00161222 0.00109226 0.00164582 0.00111166 0.00164582 0.00111166 0.00166778 0.00112818 0.00253223 0.00263076 0.00275175 0.00286511 0.00263076 0.00272928 0.00286511 0.00296574 0.00275175 0.00286511 0.00297127 0.00309425 0.00286511 0.00296574 0.00309425 0.00320359 0.00279506 0.00239862 0.00290323 0.00249764 0.00239862 0.00196657 0.00249764 0.00204436 0.00165354 0.00111688 0.00161049 0.00108412 0.00161049 0.00108412 0.00155232 0.00105137 0.00264761 0.00280944 0.00283397 0.00301312 0.00280944 0.00297127 0.00301312 0.00318341 0.00283397 0.00301312 0.00301747 0.00320972 0.00301312 0.00318341 0.00320972 0.00339042 0.00155232 0.00105137 0.00147236 0.000990623 0.00147236 0.000990623 0.00137153 0.000929875 0.00297127 0.00309425 0.00318341 0.00331631 0.00309425 0.00320359 0.00331631 0.00343327 0.00318341 0.00331631 0.00339042 0.00353027 0.00331631 0.00343327 0.00353027 0.00365647 0.00177777 0.00135243 0.00187479 0.00143386 0.00135243 0.000919206 0.00143386 0.000969201 0.00187479 0.00143386 0.00196657 0.00150366 0.00143386 0.000969201 0.00150366 0.00101794 0.00196657 0.00150366 0.00204436 0.00156465 0.00150366 0.00101794 0.00156465 0.00105629 0.00156465 0.00105629 0.00161222 0.00109226 0.00208538 0.00232881 0.00219263 0.00245558 0.00232881 0.00257224 0.00245558 0.00271103 0.00219263 0.00245558 0.00229987 0.00257365 0.00245558 0.00271103 0.00257365 0.00284201 0.00159386 0.00163144 0.00107917 0.00110145 0.00163144 0.00165792 0.00110145 0.00111879 0.00165847 0.00164204 0.00112211 0.00111188 0.00111879 0.00112211 0.000562652 0.000564098 0.00112211 0.00111188 0.000564098 0.000555938 0.000562652 0.000564098 0 0 0.000564098 0.000555938 0 0 0.00164204 0.00160569 0.00111188 0.00108081 0.00160569 0.00154854 0.00108081 0.00104975 0.00154854 0.00147034 0.00104975 0.000989266 0.00147034 0.0013701 0.000989266 0.000928782 0.00257224 0.0027991 0.00271103 0.00295073 0.0027991 0.00301747 0.00295073 0.00318193 0.00271103 0.00295073 0.00284201 0.00309448 0.00295073 0.00318193 0.00309448 0.00333716 0.00229987 0.00257365 0.00237763 0.00266514 0.00257365 0.00284201 0.00266514 0.00294475 0.00237763 0.00266514 0.00245539 0.0027495 0.00266514 0.00294475 0.0027495 0.00303758 0.00284201 0.00309448 0.00294475 0.00320699 0.00309448 0.00333716 0.00320699 0.00345731 0.00294475 0.00320699 0.00303758 0.00330666 0.00320699 0.00345731 0.00330666 0.00356615 0.00137153 0.000929875 0.00125069 0.000841677 0.00125069 0.000841677 0.00111172 0.000753478 0.00339042 0.00353027 0.00357456 0.00373266 0.00111172 0.000753478 0.000953854 0.000642337 0.000953854 0.000642337 0.000782811 0.000531196 0.00333716 0.0035492 0.00345731 0.00368808 0.0013701 0.00124993 0.000928782 0.000840978 0.00124993 0.00111125 0.000840978 0.000753175 0.00111125 0.000953631 0.000753175 0.000642144 0.000953631 0.000782736 0.000642144 0.000531113 0.00391095 0.00404434 0.00406076 0.00419914 0.00389081 0.00406076 0.00400762 0.00418263 0.00406076 0.00419914 0.00418263 0.00432747 0.00157284 0.00142634 0.00174227 0.00159176 0.00142634 0.00127984 0.00159176 0.00142123 0.00174227 0.00159176 0.00192765 0.00175837 0.00159176 0.00142123 0.00175837 0.00156261 0.00102684 0.000782811 0.000782736 0.000597607 0.000782811 0.000531196 0.000597607 0.000403087 0.000782736 0.000597607 0.000531113 0.000403046 0.000597607 0.000403087 0.000403046 0.000274979 0.00192765 0.00175837 0.00212415 0.00193493 0.00175837 0.00156261 0.00193493 0.00172128 0.00212415 0.00193493 0.00232064 0.00211389 0.00193493 0.00172128 0.00211389 0.00187994 0.00301747 0.00320972 0.00318193 0.00338551 0.00320972 0.00339042 0.00338551 0.00357456 0.00318193 0.00338551 0.00333716 0.0035492 0.00338551 0.00357456 0.0035492 0.00374935 0.00155129 0.0018055 0.00140327 0.00163769 0.0018055 0.00206119 0.00163769 0.00186511 0.00140327 0.00163769 0.00125525 0.00146181 0.00163769 0.00186511 0.00146181 0.00166903 0.00378171 0.00378657 0.0039941 0.00399722 0.00378657 0.00374421 0.00399722 0.00395842 0.00125525 0.00146181 0.00106843 0.00124975 0.00146181 0.00166903 0.00124975 0.00142632 0.00106843 0.00124975 0.0008816 0.00102762 0.00124975 0.00142632 0.00102762 0.00117363 0.0043525 0.00435527 0.00448333 0.00448847 0.00435527 0.00431372 0.00448847 0.00444341 0.00132529 0.00100534 0.00143776 0.00109555 0.00100534 0.000685391 0.00109555 0.000743943 0.00143776 0.00109555 0.00155283 0.00118369 0.00109555 0.000743943 0.00118369 0.000803754 0.00233871 0.00234023 0.00258004 0.0025783 0.00234023 0.00231576 0.0025783 0.00255213 0.00258004 0.0025783 0.00282136 0.00282146 0.0025783 0.00255213 0.00282146 0.00279028 0.00188276 0.00182862 0.00209273 0.00204252 0.00182862 0.00177449 0.00204252 0.00196894 0.00209273 0.00204252 0.00231576 0.00225984 0.00204252 0.00196894 0.00225984 0.00218013 0.00366829 0.0039113 0.00366591 0.00390632 0.00366591 0.00390632 0.00361945 0.00386416 0.00431283 0.00445992 0.00430792 0.00445725 0.00430792 0.00445725 0.00426139 0.00440679 0.00255309 0.00278292 0.00231004 0.0025326 0.00278292 0.00299699 0.0025326 0.0027365 0.00231004 0.0025326 0.00206698 0.00225103 0.0025326 0.0027365 0.00225103 0.00242671 0.00206698 0.00225103 0.00177064 0.0019328 0.00225103 0.00242671 0.0019328 0.00208479 0.00177064 0.0019328 0.00145472 0.00158542 0.00171227 0.00182231 0.00130242 0.00139343 0.00182231 0.00192591 0.00139343 0.