<?xml version="1.0" ?> 
<!-- 
# vtk DataFile Version 3.0
#This file was generated by the deal.II library on 21:42:30 at 2021/4/29
-->
<VTKFile type="UnstructuredGrid" version="0.1" byte_order="LittleEndian">
<UnstructuredGrid>
<Piece NumberOfPoints="65536" NumberOfCells="16384" >
  <Points>
    <DataArray type="Float32" NumberOfComponents="3" format="ascii">
-1 -1 0
-0.984375 -1 0
-1 -0.984375 0
-0.984375 -0.984375 0
-0.984375 -1 0
-0.96875 -1 0
-0.984375 -0.984375 0
-0.96875 -0.984375 0
-1 -0.984375 0
-0.984375 -0.984375 0
-1 -0.96875 0
-0.984375 -0.96875 0
-0.984375 -0.984375 0
-0.96875 -0.984375 0
-0.984375 -0.96875 0
-0.96875 -0.96875 0
-0.96875 -1 0
-0.953125 -1 0
-0.96875 -0.984375 0
-0.953125 -0.984375 0
-0.953125 -1 0
-0.9375 -1 0
-0.953125 -0.984375 0
-0.9375 -0.984375 0
-0.96875 -0.984375 0
-0.953125 -0.984375 0
-0.96875 -0.96875 0
-0.953125 -0.96875 0
-0.953125 -0.984375 0
-0.9375 -0.984375 0
-0.953125 -0.96875 0
-0.9375 -0.96875 0
-1 -0.96875 0
-0.984375 -0.96875 0
-1 -0.953125 0
-0.984375 -0.953125 0
-0.984375 -0.96875 0
-0.96875 -0.96875 0
-0.984375 -0.953125 0
-0.96875 -0.953125 0
-1 -0.953125 0
-0.984375 -0.953125 0
-1 -0.9375 0
-0.984375 -0.9375 0
-0.984375 -0.953125 0
-0.96875 -0.953125 0
-0.984375 -0.9375 0
-0.96875 -0.9375 0
-0.96875 -0.96875 0
-0.953125 -0.96875 0
-0.96875 -0.953125 0
-0.953125 -0.953125 0
-0.953125 -0.96875 0
-0.9375 -0.96875 0
-0.953125 -0.953125 0
-0.9375 -0.953125 0
-0.96875 -0.953125 0
-0.953125 -0.953125 0
-0.96875 -0.9375 0
-0.953125 -0.9375 0
-0.953125 -0.953125 0
-0.9375 -0.953125 0
-0.953125 -0.9375 0
-0.9375 -0.9375 0
-0.9375 -1 0
-0.921875 -1 0
-0.9375 -0.984375 0
-0.921875 -0.984375 0
-0.921875 -1 0
-0.90625 -1 0
-0.921875 -0.984375 0
-0.90625 -0.984375 0
-0.9375 -0.984375 0
-0.921875 -0.984375 0
-0.9375 -0.96875 0
-0.921875 -0.96875 0
-0.921875 -0.984375 0
-0.90625 -0.984375 0
-0.921875 -0.96875 0
-0.90625 -0.96875 0
-0.90625 -1 0
-0.890625 -1 0
-0.90625 -0.984375 0
-0.890625 -0.984375 0
-0.890625 -1 0
-0.875 -1 0
-0.890625 -0.984375 0
-0.875 -0.984375 0
-0.90625 -0.984375 0
-0.890625 -0.984375 0
-0.90625 -0.96875 0
-0.890625 -0.96875 0
-0.890625 -0.984375 0
-0.875 -0.984375 0
-0.890625 -0.96875 0
-0.875 -0.96875 0
-0.9375 -0.96875 0
-0.921875 -0.96875 0
-0.9375 -0.953125 0
-0.921875 -0.953125 0
-0.921875 -0.96875 0
-0.90625 -0.96875 0
-0.921875 -0.953125 0
-0.90625 -0.953125 0
-0.9375 -0.953125 0
-0.921875 -0.953125 0
-0.9375 -0.9375 0
-0.921875 -0.9375 0
-0.921875 -0.953125 0
-0.90625 -0.953125 0
-0.921875 -0.9375 0
-0.90625 -0.9375 0
-0.90625 -0.96875 0
-0.890625 -0.96875 0
-0.90625 -0.953125 0
-0.890625 -0.953125 0
-0.890625 -0.96875 0
-0.875 -0.96875 0
-0.890625 -0.953125 0
-0.875 -0.953125 0
-0.90625 -0.953125 0
-0.890625 -0.953125 0
-0.90625 -0.9375 0
-0.890625 -0.9375 0
-0.890625 -0.953125 0
-0.875 -0.953125 0
-0.890625 -0.9375 0
-0.875 -0.9375 0
-1 -0.9375 0
-0.984375 -0.9375 0
-1 -0.921875 0
-0.984375 -0.921875 0
-0.984375 -0.9375 0
-0.96875 -0.9375 0
-0.984375 -0.921875 0
-0.96875 -0.921875 0
-1 -0.921875 0
-0.984375 -0.921875 0
-1 -0.90625 0
-0.984375 -0.90625 0
-0.984375 -0.921875 0
-0.96875 -0.921875 0
-0.984375 -0.90625 0
-0.96875 -0.90625 0
-0.96875 -0.9375 0
-0.953125 -0.9375 0
-0.96875 -0.921875 0
-0.953125 -0.921875 0
-0.953125 -0.9375 0
-0.9375 -0.9375 0
-0.953125 -0.921875 0
-0.9375 -0.921875 0
-0.96875 -0.921875 0
-0.953125 -0.921875 0
-0.96875 -0.90625 0
-0.953125 -0.90625 0
-0.953125 -0.921875 0
-0.9375 -0.921875 0
-0.953125 -0.90625 0
-0.9375 -0.90625 0
-1 -0.90625 0
-0.984375 -0.90625 0
-1 -0.890625 0
-0.984375 -0.890625 0
-0.984375 -0.90625 0
-0.96875 -0.90625 0
-0.984375 -0.890625 0
-0.96875 -0.890625 0
-1 -0.890625 0
-0.984375 -0.890625 0
-1 -0.875 0
-0.984375 -0.875 0
-0.984375 -0.890625 0
-0.96875 -0.890625 0
-0.984375 -0.875 0
-0.96875 -0.875 0
-0.96875 -0.90625 0
-0.953125 -0.90625 0
-0.96875 -0.890625 0
-0.953125 -0.890625 0
-0.953125 -0.90625 0
-0.9375 -0.90625 0
-0.953125 -0.890625 0
-0.9375 -0.890625 0
-0.96875 -0.890625 0
-0.953125 -0.890625 0
-0.96875 -0.875 0
-0.953125 -0.875 0
-0.953125 -0.890625 0
-0.9375 -0.890625 0
-0.953125 -0.875 0
-0.9375 -0.875 0
-0.9375 -0.9375 0
-0.921875 -0.9375 0
-0.9375 -0.921875 0
-0.921875 -0.921875 0
-0.921875 -0.9375 0
-0.90625 -0.9375 0
-0.921875 -0.921875 0
-0.90625 -0.921875 0
-0.9375 -0.921875 0
-0.921875 -0.921875 0
-0.9375 -0.90625 0
-0.921875 -0.90625 0
-0.921875 -0.921875 0
-0.90625 -0.921875 0
-0.921875 -0.90625 0
-0.90625 -0.90625 0
-0.90625 -0.9375 0
-0.890625 -0.9375 0
-0.90625 -0.921875 0
-0.890625 -0.921875 0
-0.890625 -0.9375 0
-0.875 -0.9375 0
-0.890625 -0.921875 0
-0.875 -0.921875 0
-0.90625 -0.921875 0
-0.890625 -0.921875 0
-0.90625 -0.90625 0
-0.890625 -0.90625 0
-0.890625 -0.921875 0
-0.875 -0.921875 0
-0.890625 -0.90625 0
-0.875 -0.90625 0
-0.9375 -0.90625 0
-0.921875 -0.90625 0
-0.9375 -0.890625 0
-0.921875 -0.890625 0
-0.921875 -0.90625 0
-0.90625 -0.90625 0
-0.921875 -0.890625 0
-0.90625 -0.890625 0
-0.9375 -0.890625 0
-0.921875 -0.890625 0
-0.9375 -0.875 0
-0.921875 -0.875 0
-0.921875 -0.890625 0
-0.90625 -0.890625 0
-0.921875 -0.875 0
-0.90625 -0.875 0
-0.90625 -0.90625 0
-0.890625 -0.90625 0
-0.90625 -0.890625 0
-0.890625 -0.890625 0
-0.890625 -0.90625 0
-0.875 -0.90625 0
-0.890625 -0.890625 0
-0.875 -0.890625 0
-0.90625 -0.890625 0
-0.890625 -0.890625 0
-0.90625 -0.875 0
-0.890625 -0.875 0
-0.890625 -0.890625 0
-0.875 -0.890625 0
-0.890625 -0.875 0
-0.875 -0.875 0
-0.875 -1 0
-0.859375 -1 0
-0.875 -0.984375 0
-0.859375 -0.984375 0
-0.859375 -1 0
-0.84375 -1 0
-0.859375 -0.984375 0
-0.84375 -0.984375 0
-0.875 -0.984375 0
-0.859375 -0.984375 0
-0.875 -0.96875 0
-0.859375 -0.96875 0
-0.859375 -0.984375 0
-0.84375 -0.984375 0
-0.859375 -0.96875 0
-0.84375 -0.96875 0
-0.84375 -1 0
-0.828125 -1 0
-0.84375 -0.984375 0
-0.828125 -0.984375 0
-0.828125 -1 0
-0.8125 -1 0
-0.828125 -0.984375 0
-0.8125 -0.984375 0
-0.84375 -0.984375 0
-0.828125 -0.984375 0
-0.84375 -0.96875 0
-0.828125 -0.96875 0
-0.828125 -0.984375 0
-0.8125 -0.984375 0
-0.828125 -0.96875 0
-0.8125 -0.96875 0
-0.875 -0.96875 0
-0.859375 -0.96875 0
-0.875 -0.953125 0
-0.859375 -0.953125 0
-0.859375 -0.96875 0
-0.84375 -0.96875 0
-0.859375 -0.953125 0
-0.84375 -0.953125 0
-0.875 -0.953125 0
-0.859375 -0.953125 0
-0.875 -0.9375 0
-0.859375 -0.9375 0
-0.859375 -0.953125 0
-0.84375 -0.953125 0
-0.859375 -0.9375 0
-0.84375 -0.9375 0
-0.84375 -0.96875 0
-0.828125 -0.96875 0
-0.84375 -0.953125 0
-0.828125 -0.953125 0
-0.828125 -0.96875 0
-0.8125 -0.96875 0
-0.828125 -0.953125 0
-0.8125 -0.953125 0
-0.84375 -0.953125 0
-0.828125 -0.953125 0
-0.84375 -0.9375 0
-0.828125 -0.9375 0
-0.828125 -0.953125 0
-0.8125 -0.953125 0
-0.828125 -0.9375 0
-0.8125 -0.9375 0
-0.8125 -1 0
-0.796875 -1 0
-0.8125 -0.984375 0
-0.796875 -0.984375 0
-0.796875 -1 0
-0.78125 -1 0
-0.796875 -0.984375 0
-0.78125 -0.984375 0
-0.8125 -0.984375 0
-0.796875 -0.984375 0
-0.8125 -0.96875 0
-0.796875 -0.96875 0
-0.796875 -0.984375 0
-0.78125 -0.984375 0
-0.796875 -0.96875 0
-0.78125 -0.96875 0
-0.78125 -1 0
-0.765625 -1 0
-0.78125 -0.984375 0
-0.765625 -0.984375 0
-0.765625 -1 0
-0.75 -1 0
-0.765625 -0.984375 0
-0.75 -0.984375 0
-0.78125 -0.984375 0
-0.765625 -0.984375 0
-0.78125 -0.96875 0
-0.765625 -0.96875 0
-0.765625 -0.984375 0
-0.75 -0.984375 0
-0.765625 -0.96875 0
-0.75 -0.96875 0
-0.8125 -0.96875 0
-0.796875 -0.96875 0
-0.8125 -0.953125 0
-0.796875 -0.953125 0
-0.796875 -0.96875 0
-0.78125 -0.96875 0
-0.796875 -0.953125 0
-0.78125 -0.953125 0
-0.8125 -0.953125 0
-0.796875 -0.953125 0
-0.8125 -0.9375 0
-0.796875 -0.9375 0
-0.796875 -0.953125 0
-0.78125 -0.953125 0
-0.796875 -0.9375 0
-0.78125 -0.9375 0
-0.78125 -0.96875 0
-0.765625 -0.96875 0
-0.78125 -0.953125 0
-0.765625 -0.953125 0
-0.765625 -0.96875 0
-0.75 -0.96875 0
-0.765625 -0.953125 0
-0.75 -0.953125 0
-0.78125 -0.953125 0
-0.765625 -0.953125 0
-0.78125 -0.9375 0
-0.765625 -0.9375 0
-0.765625 -0.953125 0
-0.75 -0.953125 0
-0.765625 -0.9375 0
-0.75 -0.9375 0
-0.875 -0.9375 0
-0.859375 -0.9375 0
-0.875 -0.921875 0
-0.859375 -0.921875 0
-0.859375 -0.9375 0
-0.84375 -0.9375 0
-0.859375 -0.921875 0
-0.84375 -0.921875 0
-0.875 -0.921875 0
-0.859375 -0.921875 0
-0.875 -0.90625 0
-0.859375 -0.90625 0
-0.859375 -0.921875 0
-0.84375 -0.921875 0
-0.859375 -0.90625 0
-0.84375 -0.90625 0
-0.84375 -0.9375 0
-0.828125 -0.9375 0
-0.84375 -0.921875 0
-0.828125 -0.921875 0
-0.828125 -0.9375 0
-0.8125 -0.9375 0
-0.828125 -0.921875 0
-0.8125 -0.921875 0
-0.84375 -0.921875 0
-0.828125 -0.921875 0
-0.84375 -0.90625 0
-0.828125 -0.90625 0
-0.828125 -0.921875 0
-0.8125 -0.921875 0
-0.828125 -0.90625 0
-0.8125 -0.90625 0
-0.875 -0.90625 0
-0.859375 -0.90625 0
-0.875 -0.890625 0
-0.859375 -0.890625 0
-0.859375 -0.90625 0
-0.84375 -0.90625 0
-0.859375 -0.890625 0
-0.84375 -0.890625 0
-0.875 -0.890625 0
-0.859375 -0.890625 0
-0.875 -0.875 0
-0.859375 -0.875 0
-0.859375 -0.890625 0
-0.84375 -0.890625 0
-0.859375 -0.875 0
-0.84375 -0.875 0
-0.84375 -0.90625 0
-0.828125 -0.90625 0
-0.84375 -0.890625 0
-0.828125 -0.890625 0
-0.828125 -0.90625 0
-0.8125 -0.90625 0
-0.828125 -0.890625 0
-0.8125 -0.890625 0
-0.84375 -0.890625 0
-0.828125 -0.890625 0
-0.84375 -0.875 0
-0.828125 -0.875 0
-0.828125 -0.890625 0
-0.8125 -0.890625 0
-0.828125 -0.875 0
-0.8125 -0.875 0
-0.8125 -0.9375 0
-0.796875 -0.9375 0
-0.8125 -0.921875 0
-0.796875 -0.921875 0
-0.796875 -0.9375 0
-0.78125 -0.9375 0
-0.796875 -0.921875 0
-0.78125 -0.921875 0
-0.8125 -0.921875 0
-0.796875 -0.921875 0
-0.8125 -0.90625 0
-0.796875 -0.90625 0
-0.796875 -0.921875 0
-0.78125 -0.921875 0
-0.796875 -0.90625 0
-0.78125 -0.90625 0
-0.78125 -0.9375 0
-0.765625 -0.9375 0
-0.78125 -0.921875 0
-0.765625 -0.921875 0
-0.765625 -0.9375 0
-0.75 -0.9375 0
-0.765625 -0.921875 0
-0.75 -0.921875 0
-0.78125 -0.921875 0
-0.765625 -0.921875 0
-0.78125 -0.90625 0
-0.765625 -0.90625 0
-0.765625 -0.921875 0
-0.75 -0.921875 0
-0.765625 -0.90625 0
-0.75 -0.90625 0
-0.8125 -0.90625 0
-0.796875 -0.90625 0
-0.8125 -0.890625 0
-0.796875 -0.890625 0
-0.796875 -0.90625 0
[...]
  <PointData Scalars="scalars">
    <DataArray type="Float32" Name="U" format="ascii">
0 0 0 0.000470771 0 0 0.000470771 0.000925166 0 0.000470771 0 0.00084088 0.000470771 0.000925166 0.00084088 0.00165927 0 0 0.000925166 0.00134506 0 0 0.00134506 0.00170964 0.000925166 0.00134506 0.00165927 0.00243316 0.00134506 0.00170964 0.00243316 0.00314081 0 0.00084088 0 0.0011548 0.00084088 0.00165927 0.0011548 0.00227883 0 0.0011548 0 0.00130842 0.0011548 0.00227883 0.00130842 0.00258563 0.00165927 0.00243316 0.00227883 0.00334044 0.00243316 0.00314081 0.00334044 0.00430655 0.00227883 0.00334044 0.00258563 0.00379638 0.00334044 0.00430655 0.00379638 0.00489807 0 0 0.00170964 0.00199646 0 0 0.00199646 0.00218548 0.00170964 0.00199646 0.00314081 0.00375897 0.00199646 0.00218548 0.00375897 0.00425903 0 0 0.00218548 0.00226593 0 0 0.00226593 0.00224289 0.00218548 0.00226593 0.00425903 0.00460203 0.00226593 0.00224289 0.00460203 0.00473604 0.00314081 0.00375897 0.00430655 0.00514225 0.00375897 0.00425903 0.00514225 0.0058098 0.00430655 0.00514225 0.00489807 0.00583961 0.00514225 0.0058098 0.00583961 0.00656435 0.00425903 0.00460203 0.0058098 0.00626565 0.00460203 0.00473604 0.00626565 0.00645495 0.0058098 0.00626565 0.00656435 0.00701791 0.00626565 0.00645495 0.00701791 0.00715783 0 0.00130842 0 0.0011842 0.00130842 0.00258563 0.0011842 0.00234558 0 0.0011842 0 0.000900673 0.0011842 0.00234558 0.000900673 0.00178149 0.00258563 0.00379638 0.00234558 0.00346029 0.00379638 0.00489807 0.00346029 0.00450154 0.00234558 0.00346029 0.00178149 0.00262191 0.00346029 0.00450154 0.00262191 0.00340039 0 0.000900673 0 0.000516085 0.000900673 0.00178149 0.000516085 0.00101187 0 0.000516085 0 7.48561e-05 0.000516085 0.00101187 7.48561e-05 0.00011523 0.00178149 0.00262191 0.00101187 0.00146531 0.00262191 0.00340039 0.00146531 0.0018504 0.00101187 0.00146531 0.00011523 9.00971e-05 0.00146531 0.0018504 9.00971e-05 -2.55507e-05 0.00489807 0.00583961 0.00450154 0.005436 0.00583961 0.00656435 0.005436 0.00621809 0.00450154 0.005436 0.00340039 0.00409405 0.005436 0.00621809 0.00409405 0.00467666 0.00656435 0.00701791 0.00621809 0.00678419 0.00701791 0.00715783 0.00678419 0.00705166 0.00621809 0.00678419 0.00467666 0.00511154 0.00678419 0.00705166 0.00511154 0.00533718 0.00340039 0.00409405 0.0018504 0.00213525 0.00409405 0.00467666 0.00213525 0.00228274 0.0018504 0.00213525 -2.55507e-05 -0.00025069 0.00213525 0.00228274 -0.00025069 -0.00060253 0.00467666 0.00511154 0.00228274 0.00225607 0.00511154 0.00533718 0.00225607 0.0020269 0.00228274 0.00225607 -0.00060253 -0.00110404 0.00225607 0.0020269 -0.00110404 -0.00178796 0 0 0.00224289 0.00213649 0 0 0.00213649 0.0019668 0.00224289 0.00213649 0.00473604 0.00460094 0.00213649 0.0019668 0.00460094 0.00414362 0 0 0.0019668 0.00172516 0 0 0.00172516 0.0013484 0.0019668 0.00172516 0.00414362 0.0033377 0.00172516 0.0013484 0.0033377 0.00219286 0.00473604 0.00460094 0.00645495 0.00630699 0.00460094 0.00414362 0.00630699 0.0057394 0.00645495 0.00630699 0.00715783 0.00695641 0.00630699 0.0057394 0.00695641 0.00638643 0.00414362 0.0033377 0.0057394 0.00467915 0.0033377 0.00219286 0.00467915 0.00309623 0.0057394 0.00467915 0.00638643 0.0053902 0.00467915 0.00309623 0.0053902 0.00385385 0 0 0.0013484 0.000724667 0 0 0.000724667 -0.000251142 0.0013484 0.000724667 0.00219286 0.000739374 0.000724667 -0.000251142 0.000739374 -0.00100816 0 0 -0.000251142 -0.00159295 0 0 -0.00159295 -0.00317508 -0.000251142 -0.00159295 -0.00100816 -0.00307929 -0.00159295 -0.00317508 -0.00307929 -0.00553539 0.00219286 0.000739374 0.00309623 0.00102426 0.000739374 -0.00100816 0.00102426 -0.00146595 0.00309623 0.00102426 0.00385385 0.0016219 0.00102426 -0.00146595 0.0016219 -0.00143518 -0.00100816 -0.00307929 -0.00146595 -0.00434539 -0.00307929 -0.00553539 -0.00434539 -0.00770266 -0.00146595 -0.00434539 -0.00143518 -0.00534293 -0.00434539 -0.00770266 -0.00534293 -0.0100116 0.00715783 0.00695641 0.00705166 0.00692838 0.00695641 0.00638643 0.00692838 0.00633074 0.00705166 0.00692838 0.00533718 0.00525066 0.00692838 0.00633074 0.00525066 0.0047055 0.00638643 0.0053902 0.00633074 0.0051947 0.0053902 0.00385385 0.0051947 0.00345979 0.00633074 0.0051947 0.0047055 0.00354293 0.0051947 0.00345979 0.00354293 0.00165167 0.00533718 0.00525066 0.0020269 0.00157541 0.00525066 0.0047055 0.00157541 0.000868438 0.0020269 0.00157541 -0.00178796 -0.00268771 0.00157541 0.000868438 -0.00268771 -0.00381724 0.0047055 0.00354293 0.000868438 -0.00018156 0.00354293 0.00165167 -0.00018156 -0.00174001 0.000868438 -0.00018156 -0.00381724 -0.00516762 -0.00018156 -0.00174001 -0.00516762 -0.00675723 0.00385385 0.0016219 0.00345979 0.00102846 0.0016219 -0.00143518 0.00102846 -0.00225384 0.00345979 0.00102846 0.00165167 -0.000991642 0.00102846 -0.00225384 -0.000991642 -0.0043616 -0.00143518 -0.00534293 -0.00225384 -0.00654207 -0.00534293 -0.0100116 -0.00654207 -0.0118712 -0.00225384 -0.00654207 -0.0043616 -0.00849513 -0.00654207 -0.0118712 -0.00849513 -0.0135627 0.00165167 -0.000991642 -0.00174001 -0.00400931 -0.000991642 -0.0043616 -0.00400931 -0.00713372 -0.00174001 -0.00400931 -0.00675723 -0.00872351 -0.00400931 -0.00713372 -0.00872351 -0.0113593 -0.0043616 -0.00849513 -0.00713372 -0.0111503 -0.00849513 -0.0135627 -0.0111503 -0.0160788 -0.00713372 -0.0111503 -0.0113593 -0.0149975 -0.0111503 -0.0160788 -0.0149975 -0.019811 0 7.48561e-05 0 -0.000273637 7.48561e-05 0.00011523 -0.000273637 -0.000592553 0 -0.000273637 0 -0.000617737 -0.000273637 -0.000592553 -0.000617737 -0.00126578 0.00011523 9.00971e-05 -0.000592553 -0.00100139 9.00971e-05 -2.55507e-05 -0.00100139 -0.00154149 -0.000592553 -0.00100139 -0.00126578 -0.00197838 -0.00100139 -0.00154149 -0.00197838 -0.00279804 0 -0.000617737 0 -0.0010792 -0.000617737 -0.00126578 -0.0010792 -0.002181 0 -0.0010792 0 -0.00157264 -0.0010792 -0.002181 -0.00157264 -0.00316947 -0.00126578 -0.00197838 -0.002181 -0.00332839 -0.00197838 -0.00279804 -0.00332839 -0.00454589 -0.002181 -0.00332839 -0.00316947 -0.00481349 -0.00332839 -0.00454589 -0.00481349 -0.00652557 -2.55507e-05 -0.00025069 -0.00154149 -0.00224486 -0.00025069 -0.00060253 -0.00224486 -0.0031266 -0.00154149 -0.00224486 -0.00279804 -0.00377882 -0.00224486 -0.0031266 -0.00377882 -0.00498459 -0.00060253 -0.00110404 -0.0031266 -0.00418199 -0.00110404 -0.00178796 -0.00418199 -0.0053979 -0.0031266 -0.00418199 -0.00498459 -0.00647577 -0.00418199 -0.0053979 -0.00647577 -0.00828415 -0.00279804 -0.00377882 -0.00454589 -0.00586316 -0.00377882 -0.00498459 -0.00586316 -0.00732319 -0.00454589 -0.00586316 -0.00652557 -0.00832305 -0.00586316 -0.00732319 -0.00832305 -0.0102176 -0.00498459 -0.00647577 -0.00732319 -0.00899405 -0.00647577 -0.00828415 -0.00899405 -0.0109732 -0.00732319 -0.00899405 -0.0102176 -0.0122157 -0.00899405 -0.0109732 -0.0122157 -0.0143324 0 -0.00157264 0 -0.00198778 -0.00157264 -0.00316947 -0.00198778 -0.00400426 0 -0.00198778 0 -0.00229602 -0.00198778 -0.00400426 -0.00229602 -0.00461638 -0.00316947 -0.00481349 -0.00400426 -0.00607398 -0.00481349 -0.00652557 -0.00607398 -0.00821417 -0.00400426 -0.00607398 -0.00461638 -0.00698886 -0.00607398 -0.00821417 -0.00698886 -0.00944384 0 -0.00229602 0 -0.0026953 -0.00229602 -0.00461638 -0.0026953 -0.00538715 0 -0.0026953 0 -0.00315579 -0.0026953 -0.00538715 -0.00315579 -0.00631859 -0.00461638 -0.00698886 -0.00538715 -0.00807715 -0.00698886 -0.00944384 -0.00807715 -0.0107804 -0.00538715 -0.00807715 -0.00631859 -0.00948581 -0.00807715 -0.0107804 -0.00948581 -0.0126391 -0.00652557 -0.00832305 -0.00821417 -0.0104342 -0.00832305 -0.0102176 -0.0104342 -0.012739 -0.00821417 -0.0104342 -0.00944384 -0.0120066 -0.0104342 -0.012739 -0.0120066 -0.0146858 -0.0102176 -0.0122157 -0.012739 -0.015133 -0.0122157 -0.0143324 -0.015133 -0.0176153 -0.012739 -0.015133 -0.0146858 -0.0174694 -0.015133 -0.0176153 -0.0174694 -0.0203394 -0.00944384 -0.0120066 -0.0107804 -0.0135352 -0.0120066 -0.0146858 -0.0135352 -0.0164026 -0.0107804 -0.0135352 -0.0126391 -0.0157491 -0.0135352 -0.0164026 -0.0157491 -0.0188012 -0.0146858 -0.0174694 -0.0164026 -0.0194422 -0.0174694 -0.0203394 -0.0194422 -0.0226683 -0.0164026 -0.0194422 -0.0188012 -0.021835 -0.0194422 -0.0226683 -0.021835 -0.0249609 -0.00178796 -0.00268771 -0.0053979 -0.00678003 -0.00268771 -0.00381724 -0.00678003 -0.00837546 -0.0053979 -0.00678003 -0.00828415 -0.0103912 -0.00678003 -0.00837546 -0.0103912 -0.0127406 -0.00381724 -0.00516762 -0.00837546 -0.0102561 -0.00516762 -0.00675723 -0.0102561 -0.0124597 -0.00837546 -0.0102561 -0.0127406 -0.0152954 -0.0102561 -0.0124597 -0.0152954 -0.0180889 -0.00828415 -0.0103912 -0.0109732 -0.013363 -0.0103912 -0.0127406 -0.013363 -0.0162074 -0.0109732 -0.013363 -0.0143324 -0.0166254 -0.013363 -0.0162074 -0.0166254 -0.0192252 -0.0127406 -0.0152954 -0.0162074 -0.0194319 -0.0152954 -0.0180889 -0.0194319 -0.0228715 -0.0162074 -0.0194319 -0.0192252 -0.0223 -0.0194319 -0.0228715 -0.0223 -0.0259238 -0.00675723 -0.00872351 -0.0124597 -0.0149597 -0.00872351 -0.0113593 -0.0149597 -0.01775 -0.0124597 -0.0149597 -0.0180889 -0.0211826 -0.0149597 -0.01775 -0.0211826 -0.0245469 -0.0113593 -0.0149975 -0.01775 -0.0209993 -0.0149975 -0.019811 -0.0209993 -0.0250643 -0.01775 -0.0209993 -0.0245469 -0.0280436 -0.0209993 -0.0250643 -0.0280436 -0.0316436 -0.0180889 -0.0211826 -0.0228715 -0.0264082 -0.0211826 -0.0245469 -0.0264082 -0.0300713 -0.0228715 -0.0264082 -0.0259238 -0.0299609 -0.0264082 -0.0300713 -0.0299609 -0.0341587 -0.0245469 -0.0280436 -0.0300713 -0.0339308 -0.0280436 -0.0316436 -0.0339308 -0.0379043 -0.0300713 -0.0339308 -0.0341587 -0.0384109 -0.0339308 -0.0379043 -0.0384109 -0.0428254 -0.0143324 -0.0166254 -0.0176153 -0.020171 -0.0166254 -0.0192252 -0.020171 -0.0227887 -0.0176153 -0.020171 -0.0203394 -0.0232925 -0.020171 -0.0227887 -0.0232925 -0.0263314 -0.0192252 -0.0223 -0.0227887 -0.0255376 -0.0223 -0.0259238 -0.0255376 -0.0286412 -0.0227887 -0.0255376 -0.0263314 -0.0294227 -0.0255376 -0.0286412 -0.0294227 -0.0325187 -0.0203394 -0.0232925 -0.0226683 -0.0260283 -0.0232925 -0.0263314 -0.0260283 -0.0294453 -0.0226683 -0.0260283 -0.0249609 -0.0283017 -0.0260283 -0.0294453 -0.0283017 -0.0318724 -0.0263314 -0.0294227 -0.0294453 -0.032885 -0.0294227 -0.0325187 -0.032885 -0.0363294 -0.0294453 -0.032885 -0.0318724 -0.0355309 -0.032885 -0.0363294 -0.0355309 -0.0391083 -0.0259238 -0.0299609 -0.0286412 -0.0323877 -0.0299609 -0.0341587 -0.0323877 -0.0368497 -0.0286412 -0.0323877 -0.0325187 -0.035719 -0.0323877 -0.0368497 -0.035719 -0.0393789 -0.0341587 -0.0384109 -0.0368497 -0.041736 -0.0384109 -0.0428254 -0.041736 -0.0466807 -0.0368497 -0.041736 -0.0393789 -0.0438373 -0.041736 -0.0466807 -0.0438373 -0.0489459 -0.0325187 -0.035719 -0.0363294 -0.0396766 -0.035719 -0.0393789 -0.0396766 -0.0428306 -0.0363294 -0.0396766 -0.0391083 -0.0425543 -0.0396766 -0.0428306 -0.0425543 -0.045823 -0.0393789 -0.0438373 -0.0428306 -0.0460317 -0.0438373 -0.0489459 -0.0460317 -0.0498464 -0.0428306 -0.0460317 -0.045823 -0.0487304 -0.0460317 -0.0498464 -0.0487304 -0.0513155 0 0 -0.00317508 -0.00478534 0 0 -0.00478534 -0.00627492 -0.00317508 -0.00478534 -0.00553539 -0.00841685 -0.00478534 -0.00627492 -0.00841685 -0.0116961 0 0 -0.00627492 -0.00770056 0 0 -0.00770056 -0.00931946 -0.00627492 -0.00770056 -0.0116961 -0.0152891 -0.00770056 -0.00931946 -0.0152891 -0.0191216 -0.00553539 -0.00841685 -0.00770266 -0.0117265 -0.00841685 -0.0116961 -0.0117265 -0.0165616 -0.00770266 -0.0117265 -0.0100116 -0.0153228 -0.0117265 -0.0165616 -0.0153228 -0.0212378 -0.0116961 -0.0152891 -0.0165616 -0.0221321 -0.0152891 -0.0191216 -0.0221321 -0.0281088 -0.0165616 -0.0221321 -0.0212378 -0.027802 -0.0221321 -0.0281088 -0.027802 -0.0350172 0 0 -0.00931946 -0.0113945 0 0 -0.0113945 -0.0139397 -0.00931946 -0.0113945 -0.0191216 -0.0231771 -0.0113945 -0.0139397 -0.0231771 -0.027459 0 0 -0.0139397 -0.0166304 0 0 -0.0166304 -0.0189978 -0.0139397 -0.0166304 -0.027459 -0.031891 -0.0166304 -0.0189978 -0.031891 -0.0362725 -0.0191216 -0.0231771 -0.0281088 -0.034101 -0.0231771 -0.027459 -0.034101 -0.03994 -0.0281088 -0.034101 -0.0350172 -0.0427233 -0.034101 -0.03994 -0.0427233 -0.0506549 -0.027459 -0.031891 -0.03994 -0.0457873 -0.031891 -0.0362725 -0.0457873 -0.0519303 -0.03994 -0.0457873 -0.0506549 -0.0586476 -0.0457873 -0.0519303 -0.0586476 -0.0667539 -0.0100116 -0.0153228 -0.0118712 -0.0180874 -0.0153228 -0.0212378 -0.0180874 -0.024948 -0.0118712 -0.0180874 -0.0135627 -0.0197837 -0.0180874 -0.024948 -0.0197837 -0.0272337 -0.0212378 -0.027802 -0.024948 -0.0323461 -0.027802 -0.0350172 -0.0323461 -0.0404284 -0.024948 -0.0323461 -0.0272337 -0.0357583 -0.0323461 -0.0404284 -0.0357583 -0.0451284 -0.0135627 -0.0197837 -0.0160788 -0.0220786 -0.0197837 -0.0272337 -0.0220786 -0.0294461 -0.0160788 -0.0220786 -0.019811 -0.0257566 -0.0220786 -0.0294461 -0.0257566 -0.0327757 -0.0272337 -0.0357583 -0.0294461 -0.0383594 -0.0357583 -0.0451284 -0.0383594 -0.0486148 -0.0294461 -0.0383594 -0.0327757 -0.0410076 -0.0383594 -0.0486148 -0.0410076 -0.0506752 -0.0350172 -0.0427233 -0.0404284 -0.0494278 -0.0427233 -0.0506549 -0.0494278 -0.0593276 -0.0404284 -0.0494278 -0.0451284 -0.0552688 -0.0494278 -0.0593276 -0.0552688 -0.0662384 -0.0506549 -0.0586476 -0.0593276 -0.0697105 -0.0586476 -0.0667539 -0.0697105 -0.0799902 -0.0593276 -0.0697105 -0.0662384 -0.0779239 -0.0697105 -0.0799902 -0.0779239 -0.0898163 -0.0451284 -0.0552688 -0.0486148 -0.059713 -0.0552688 -0.0662384 -0.059713 -0.0712673 -0.0486148 -0.059713 -0.0506752 -0.0617199 -0.059713 -0.0712673 -0.0617199 -0.0736967 -0.0662384 -0.0779239 -0.0712673 -0.0832559 -0.0779239 -0.0898163 -0.0832559 -0.0957776 -0.0712673 -0.0832559 -0.0736967 -0.0861679 -0.0832559 -0.0957776 -0.0861679 -0.0991152 0 0 -0.0189978 -0.0207834 0 0 -0.0207834 -0.0221585 -0.0189978 -0.0207834 -0.0362725 -0.0403744 -0.0207834 -0.0221585 -0.0403744 -0.0441089 0 0 -0.0221585 -0.0235892 0 0 -0.0235892 -0.0254246 -0.0221585 -0.0235892 -0.0441089 -0.0475952 -0.0235892 -0.0254246 -0.0475952 -0.0510022 -0.0362725 -0.0403744 -0.0519303 -0.0584239 -0.0403744 -0.0441089 -0.0584239 -0.0649128 -0.0519303 -0.0584239 -0.0667539 -0.0750739 -0.0584239 -0.0649128 -0.0750739 -0.083424 -0.0441089 -0.0475952 -0.0649128 -0.070816 -0.0475952 -0.0510022 -0.070816 -0.0757081 -0.0649128 -0.070816 -0.083424 -0.0912127 -0.070816 -0.0757081 -0.0912127 -0.0977397 0 0 -0.0254246 -0.0275401 0 0 -0.0275401 -0.0293524 -0.0254246 -0.0275401 -0.0510022 -0.0542742 -0.0275401 -0.0293524 -0.0542742 -0.0570025 0 0 -0.0293524 -0.030223 0 0 -0.030223 -0.0299392 -0.0293524 -0.030223 -0.0570025 -0.058619 -0.030223 -0.0299392 -0.058619 -0.0588021 -0.0510022 -0.0542742 -0.0757081 -0.0795406 -0.0542742 -0.0570025 -0.0795406 -0.0825064 -0.0757081 -0.0795406 -0.0977397 -0.10269 -0.0795406 -0.0825064 -0.10269 -0.10633 -0.0570025 -0.058619 -0.0825064 -0.084708 -0.058619 -0.0588021 -0.084708 -0.0859669 -0.0825064 -0.084708 -0.10633 -0.109164 -0.084708 -0.0859669 -0.109164 -0.111322 -0.0667539 -0.0750739 -0.0799902 -0.0897993 -0.0750739 -0.083424 -0.0897993 -0.0991085 -0.0799902 -0.0897993 -0.0898163 -0.101232 -0.0897993 -0.0991085 -0.101232 -0.111808 -0.083424 -0.0912127 -0.0991085 -0.107949 -0.0912127 -0.0977397 -0.107949 -0.116082 -0.0991085 -0.107949 -0.111808 -0.121704 -0.107949 -0.116082 -0.121704 -0.1312 -0.0898163 -0.101232 -0.0957776 -0.108607 -0.101232 -0.111808 -0.108607 -0.121151 -0.0957776 -0.108607 -0.0991152 -0.112749 -0.108607 -0.121151 -0.112749 -0.126876 -0.111808 -0.121704 -0.121151 -0.132905 -0.121704 -0.1312 -0.132905 -0.143785 -0.121151 -0.132905 -0.126876 -0.140665 -0.132905 -0.143785 -0.140665 -0.153172 -0.0977397 -0.10269 -0.116082 -0.123026 -0.10269 -0.10633 -0.123026 -0.128425 -0.116082 -0.123026 -0.1312 -0.140105 -0.123026 -0.128425 -0.140105 -0.147641 -0.10633 -0.109164 -0.128425 -0.13229 -0.109164 -0.111322 -0.13229 -0.134784 -0.128425 -0.13229 -0.147641 -0.152954 -0.13229 -0.134784 -0.152954 -0.155682 -0.1312 -0.140105 -0.143785 -0.153844 -0.140105 -0.147641 -0.153844 -0.162673 -0.143785 -0.153844 -0.153172 -0.163982 -0.153844 -0.162673 -0.163982 -0.173117 -0.147641 -0.152954 -0.162673 -0.169286 -0.152954 -0.155682 -0.169286 -0.172751 -0.162673 -0.169286 -0.173117 -0.180369 -0.169286 -0.172751 -0.180369 -0.185001 -0.019811 -0.0257566 -0.0250643 -0.0302529 -0.0257566 -0.0327757 -0.0302529 -0.0365873 -0.0250643 -0.0302529 -0.0316436 -0.0356648 -0.0302529 -0.0365873 -0.0356648 -0.0406467 -0.0327757 -0.0410076 -0.0365873 -0.0439259 -0.0410076 -0.0506752 -0.0439259 -0.0523496 -0.0365873 -0.0439259 -0.0406467 -0.046918 -0.0439259 -0.0523496 -0.046918 -0.0544431 -0.0316436 -0.0356648 -0.0379043 -0.041851 -0.0356648 -0.0406467 -0.041851 -0.0459661 -0.0379043 -0.041851 -0.0428254 -0.0474249 -0.041851 -0.0459661 -0.0474249 -0.0519709 -0.0406467 -0.046918 -0.0459661 -0.0508952 -0.046918 -0.0544431 -0.0508952 -0.0572248 -0.0459661 -0.0508952 -0.0519709 -0.0563763 -0.0508952 -0.0572248 -0.0563763 -0.0611605 -0.0506752 -0.0617199 -0.0523496 -0.0622446 -0.0617199 -0.0736967 -0.0622446 -0.0738493 -0.0523496 -0.0622446 -0.0544431 -0.0632166 -0.0622446 -0.0738493 -0.0632166 -0.0735864 -0.0736967 -0.0861679 -0.0738493 -0.0868383 -0.0861679 -0.0991152 -0.0868383 -0.100577 -0.0738493 -0.0868383 -0.0735864 -0.0858641 -0.0868383 -0.100577 -0.0858641 -0.0996869 -0.0544431 -0.0632166 -0.0572248 -0.0649954 -0.0632166 -0.0735864 -0.0649954 -0.0739978 -0.0572248 -0.0649954 -0.0611605 -0.0670795 -0.0649954 -0.0739978 -0.0670795 -0.0743475 -0.0735864 -0.0858641 -0.0739978 -0.0843857 -0.0858641 -0.0996869 -0.0843857 -0.0965107 -0.0739978 -0.0843857 -0.0743475 -0.0827115 -0.0843857 -0.0965107 -0.0827115 -0.0922769 -0.0428254 -0.0474249 -0.0466807 -0.0516173 -0.0474249 -0.0519709 -0.0516173 -0.0565993 -0.0466807 -0.0516173 -0.0489459 -0.0541366 -0.0516173 -0.0565993 -0.0541366 -0.0590696 -0.0519709 -0.0563763 -0.0565993 -0.0613546 -0.0563763 -0.0611605 -0.0613546 -0.0655445 -0.0565993 -0.0613546 -0.0590696 -0.0638017 -0.0613546 -0.0655445 -0.0638017 -0.0681729 -0.0489459 -0.0541366 -0.0498464 -0.0544855 -0.0541366 -0.0590696 -0.0544855 -0.0594045 -0.0498464 -0.0544855 -0.0513155 -0.0542447 -0.0544855 -0.0594045 -0.0542447 -0.0581682 -0.0590696 -0.0638017 -0.0594045 -0.0640144 -0.0638017 -0.0681729 -0.0640144 -0.0683182 -0.0594045 -0.0640144 -0.0581682 -0.0627469 -0.0640144 -0.0683182 -0.0627469 -0.0671549 -0.0611605 -0.0670795 -0.0655445 -0.069538 -0.0670795 -0.0743475 -0.069538 -0.0743235 -0.0655445 -0.069538 -0.0681729 -0.071748 -0.069538 -0.0743235 -0.071748 -0.0747799 -0.0743475 -0.0827115 -0.0743235 -0.0804816 -0.0827115 -0.0922769 -0.0804816 -0.0879024 -0.0743235 -0.0804816 -0.0747799 -0.0784705 -0.0804816 -0.0879024 -0.0784705 -0.0837594 -0.0681729 -0.071748 -0.0683182 -0.0722938 -0.071748 -0.0747799 -0.0722938 -0.0754438 -0.0683182 -0.0722938 -0.0671549 -0.0712051 -0.0722938 -0.0754438 -0.0712051 -0.0749093 -0.0747799 -0.0784705 -0.0754438 -0.0778354 -0.0784705 -0.0837594 -0.0778354 -0.080751 -0.0754438 -0.0778354 -0.0749093 -0.0776629 -0.0778354 -0.080751 -0.0776629 -0.0793085 -0.0991152 -0.112749 -0.100577 -0.114723 -0.112749 -0.126876 -0.114723 -0.129276 -0.100577 -0.114723 -0.0996869 -0.114135 -0.114723 -0.129276 -0.114135 -0.12855 -0.126876 -0.140665 -0.129276 -0.143939 -0.140665 -0.153172 -0.143939 -0.157753 -0.129276 -0.143939 -0.12855 -0.14287 -0.143939 -0.157753 -0.14287 -0.156977 -0.0996869 -0.114135 -0.0965107 -0.110127 -0.114135 -0.12855 -0.110127 -0.12429 -0.0965107 -0.110127 -0.0922769 -0.103589 -0.110127 -0.12429 -0.103589 -0.116672 -0.12855 -0.14287 -0.12429 -0.138271 -0.14287 -0.156977 -0.138271 -0.152101 -0.12429 -0.138271 -0.116672 -0.130636 -0.138271 -0.152101 -0.130636 -0.14462 -0.153172 -0.163982 -0.157753 -0.169645 -0.163982 -0.173117 -0.169645 -0.179253 -0.157753 -0.169645 -0.156977 -0.170083 -0.169645 -0.179253 -0.170083 -0.181175 -0.173117 -0.180369 -0.179253 -0.18688 -0.180369 -0.185001 -0.18688 -0.192617 -0.179253 -0.18688 -0.181175 -0.189928 -0.18688 -0.192617 -0.189928 -0.196698 -0.156977 -0.170083 -0.152101 -0.165854 -0.170083 -0.181175 -0.165854 -0.178771 -0.1