<?xml version="1.0" ?> 
<!-- 
# vtk DataFile Version 3.0
#This file was generated by the deal.II library on 21:46:30 at 2021/4/29
-->
<VTKFile type="UnstructuredGrid" version="0.1" byte_order="LittleEndian">
<UnstructuredGrid>
<Piece NumberOfPoints="65536" NumberOfCells="16384" >
  <Points>
    <DataArray type="Float32" NumberOfComponents="3" format="ascii">
-1 -1 0
-0.984375 -1 0
-1 -0.984375 0
-0.984375 -0.984375 0
-0.984375 -1 0
-0.96875 -1 0
-0.984375 -0.984375 0
-0.96875 -0.984375 0
-1 -0.984375 0
-0.984375 -0.984375 0
-1 -0.96875 0
-0.984375 -0.96875 0
-0.984375 -0.984375 0
-0.96875 -0.984375 0
-0.984375 -0.96875 0
-0.96875 -0.96875 0
-0.96875 -1 0
-0.953125 -1 0
-0.96875 -0.984375 0
-0.953125 -0.984375 0
-0.953125 -1 0
-0.9375 -1 0
-0.953125 -0.984375 0
-0.9375 -0.984375 0
-0.96875 -0.984375 0
-0.953125 -0.984375 0
-0.96875 -0.96875 0
-0.953125 -0.96875 0
-0.953125 -0.984375 0
-0.9375 -0.984375 0
-0.953125 -0.96875 0
-0.9375 -0.96875 0
-1 -0.96875 0
-0.984375 -0.96875 0
-1 -0.953125 0
-0.984375 -0.953125 0
-0.984375 -0.96875 0
-0.96875 -0.96875 0
-0.984375 -0.953125 0
-0.96875 -0.953125 0
-1 -0.953125 0
-0.984375 -0.953125 0
-1 -0.9375 0
-0.984375 -0.9375 0
-0.984375 -0.953125 0
-0.96875 -0.953125 0
-0.984375 -0.9375 0
-0.96875 -0.9375 0
-0.96875 -0.96875 0
-0.953125 -0.96875 0
-0.96875 -0.953125 0
-0.953125 -0.953125 0
-0.953125 -0.96875 0
-0.9375 -0.96875 0
-0.953125 -0.953125 0
-0.9375 -0.953125 0
-0.96875 -0.953125 0
-0.953125 -0.953125 0
-0.96875 -0.9375 0
-0.953125 -0.9375 0
-0.953125 -0.953125 0
-0.9375 -0.953125 0
-0.953125 -0.9375 0
-0.9375 -0.9375 0
-0.9375 -1 0
-0.921875 -1 0
-0.9375 -0.984375 0
-0.921875 -0.984375 0
-0.921875 -1 0
-0.90625 -1 0
-0.921875 -0.984375 0
-0.90625 -0.984375 0
-0.9375 -0.984375 0
-0.921875 -0.984375 0
-0.9375 -0.96875 0
-0.921875 -0.96875 0
-0.921875 -0.984375 0
-0.90625 -0.984375 0
-0.921875 -0.96875 0
-0.90625 -0.96875 0
-0.90625 -1 0
-0.890625 -1 0
-0.90625 -0.984375 0
-0.890625 -0.984375 0
-0.890625 -1 0
-0.875 -1 0
-0.890625 -0.984375 0
-0.875 -0.984375 0
-0.90625 -0.984375 0
-0.890625 -0.984375 0
-0.90625 -0.96875 0
-0.890625 -0.96875 0
-0.890625 -0.984375 0
-0.875 -0.984375 0
-0.890625 -0.96875 0
-0.875 -0.96875 0
-0.9375 -0.96875 0
-0.921875 -0.96875 0
-0.9375 -0.953125 0
-0.921875 -0.953125 0
-0.921875 -0.96875 0
-0.90625 -0.96875 0
-0.921875 -0.953125 0
-0.90625 -0.953125 0
-0.9375 -0.953125 0
-0.921875 -0.953125 0
-0.9375 -0.9375 0
-0.921875 -0.9375 0
-0.921875 -0.953125 0
-0.90625 -0.953125 0
-0.921875 -0.9375 0
-0.90625 -0.9375 0
-0.90625 -0.96875 0
-0.890625 -0.96875 0
-0.90625 -0.953125 0
-0.890625 -0.953125 0
-0.890625 -0.96875 0
-0.875 -0.96875 0
-0.890625 -0.953125 0
-0.875 -0.953125 0
-0.90625 -0.953125 0
-0.890625 -0.953125 0
-0.90625 -0.9375 0
-0.890625 -0.9375 0
-0.890625 -0.953125 0
-0.875 -0.953125 0
-0.890625 -0.9375 0
-0.875 -0.9375 0
-1 -0.9375 0
-0.984375 -0.9375 0
-1 -0.921875 0
-0.984375 -0.921875 0
-0.984375 -0.9375 0
-0.96875 -0.9375 0
-0.984375 -0.921875 0
-0.96875 -0.921875 0
-1 -0.921875 0
-0.984375 -0.921875 0
-1 -0.90625 0
-0.984375 -0.90625 0
-0.984375 -0.921875 0
-0.96875 -0.921875 0
-0.984375 -0.90625 0
-0.96875 -0.90625 0
-0.96875 -0.9375 0
-0.953125 -0.9375 0
-0.96875 -0.921875 0
-0.953125 -0.921875 0
-0.953125 -0.9375 0
-0.9375 -0.9375 0
-0.953125 -0.921875 0
-0.9375 -0.921875 0
-0.96875 -0.921875 0
-0.953125 -0.921875 0
-0.96875 -0.90625 0
-0.953125 -0.90625 0
-0.953125 -0.921875 0
-0.9375 -0.921875 0
-0.953125 -0.90625 0
-0.9375 -0.90625 0
-1 -0.90625 0
-0.984375 -0.90625 0
-1 -0.890625 0
-0.984375 -0.890625 0
-0.984375 -0.90625 0
-0.96875 -0.90625 0
-0.984375 -0.890625 0
-0.96875 -0.890625 0
-1 -0.890625 0
-0.984375 -0.890625 0
-1 -0.875 0
-0.984375 -0.875 0
-0.984375 -0.890625 0
-0.96875 -0.890625 0
-0.984375 -0.875 0
-0.96875 -0.875 0
-0.96875 -0.90625 0
-0.953125 -0.90625 0
-0.96875 -0.890625 0
-0.953125 -0.890625 0
-0.953125 -0.90625 0
-0.9375 -0.90625 0
-0.953125 -0.890625 0
-0.9375 -0.890625 0
-0.96875 -0.890625 0
-0.953125 -0.890625 0
-0.96875 -0.875 0
-0.953125 -0.875 0
-0.953125 -0.890625 0
-0.9375 -0.890625 0
-0.953125 -0.875 0
-0.9375 -0.875 0
-0.9375 -0.9375 0
-0.921875 -0.9375 0
-0.9375 -0.921875 0
-0.921875 -0.921875 0
-0.921875 -0.9375 0
-0.90625 -0.9375 0
-0.921875 -0.921875 0
-0.90625 -0.921875 0
-0.9375 -0.921875 0
-0.921875 -0.921875 0
-0.9375 -0.90625 0
-0.921875 -0.90625 0
-0.921875 -0.921875 0
-0.90625 -0.921875 0
-0.921875 -0.90625 0
-0.90625 -0.90625 0
-0.90625 -0.9375 0
-0.890625 -0.9375 0
-0.90625 -0.921875 0
-0.890625 -0.921875 0
-0.890625 -0.9375 0
-0.875 -0.9375 0
-0.890625 -0.921875 0
-0.875 -0.921875 0
-0.90625 -0.921875 0
-0.890625 -0.921875 0
-0.90625 -0.90625 0
-0.890625 -0.90625 0
-0.890625 -0.921875 0
-0.875 -0.921875 0
-0.890625 -0.90625 0
-0.875 -0.90625 0
-0.9375 -0.90625 0
-0.921875 -0.90625 0
-0.9375 -0.890625 0
-0.921875 -0.890625 0
-0.921875 -0.90625 0
-0.90625 -0.90625 0
-0.921875 -0.890625 0
-0.90625 -0.890625 0
-0.9375 -0.890625 0
-0.921875 -0.890625 0
-0.9375 -0.875 0
-0.921875 -0.875 0
-0.921875 -0.890625 0
-0.90625 -0.890625 0
-0.921875 -0.875 0
-0.90625 -0.875 0
-0.90625 -0.90625 0
-0.890625 -0.90625 0
-0.90625 -0.890625 0
-0.890625 -0.890625 0
-0.890625 -0.90625 0
-0.875 -0.90625 0
-0.890625 -0.890625 0
-0.875 -0.890625 0
-0.90625 -0.890625 0
-0.890625 -0.890625 0
-0.90625 -0.875 0
-0.890625 -0.875 0
-0.890625 -0.890625 0
-0.875 -0.890625 0
-0.890625 -0.875 0
-0.875 -0.875 0
-0.875 -1 0
-0.859375 -1 0
-0.875 -0.984375 0
-0.859375 -0.984375 0
-0.859375 -1 0
-0.84375 -1 0
-0.859375 -0.984375 0
-0.84375 -0.984375 0
-0.875 -0.984375 0
-0.859375 -0.984375 0
-0.875 -0.96875 0
-0.859375 -0.96875 0
-0.859375 -0.984375 0
-0.84375 -0.984375 0
-0.859375 -0.96875 0
-0.84375 -0.96875 0
-0.84375 -1 0
-0.828125 -1 0
-0.84375 -0.984375 0
-0.828125 -0.984375 0
-0.828125 -1 0
-0.8125 -1 0
-0.828125 -0.984375 0
-0.8125 -0.984375 0
-0.84375 -0.984375 0
-0.828125 -0.984375 0
-0.84375 -0.96875 0
-0.828125 -0.96875 0
-0.828125 -0.984375 0
-0.8125 -0.984375 0
-0.828125 -0.96875 0
-0.8125 -0.96875 0
-0.875 -0.96875 0
-0.859375 -0.96875 0
-0.875 -0.953125 0
-0.859375 -0.953125 0
-0.859375 -0.96875 0
-0.84375 -0.96875 0
-0.859375 -0.953125 0
-0.84375 -0.953125 0
-0.875 -0.953125 0
-0.859375 -0.953125 0
-0.875 -0.9375 0
-0.859375 -0.9375 0
-0.859375 -0.953125 0
-0.84375 -0.953125 0
-0.859375 -0.9375 0
-0.84375 -0.9375 0
-0.84375 -0.96875 0
-0.828125 -0.96875 0
-0.84375 -0.953125 0
-0.828125 -0.953125 0
-0.828125 -0.96875 0
-0.8125 -0.96875 0
-0.828125 -0.953125 0
-0.8125 -0.953125 0
-0.84375 -0.953125 0
-0.828125 -0.953125 0
-0.84375 -0.9375 0
-0.828125 -0.9375 0
-0.828125 -0.953125 0
-0.8125 -0.953125 0
-0.828125 -0.9375 0
-0.8125 -0.9375 0
-0.8125 -1 0
-0.796875 -1 0
-0.8125 -0.984375 0
-0.796875 -0.984375 0
-0.796875 -1 0
-0.78125 -1 0
-0.796875 -0.984375 0
-0.78125 -0.984375 0
-0.8125 -0.984375 0
-0.796875 -0.984375 0
-0.8125 -0.96875 0
-0.796875 -0.96875 0
-0.796875 -0.984375 0
-0.78125 -0.984375 0
-0.796875 -0.96875 0
-0.78125 -0.96875 0
-0.78125 -1 0
-0.765625 -1 0
-0.78125 -0.984375 0
-0.765625 -0.984375 0
-0.765625 -1 0
-0.75 -1 0
-0.765625 -0.984375 0
-0.75 -0.984375 0
-0.78125 -0.984375 0
-0.765625 -0.984375 0
-0.78125 -0.96875 0
-0.765625 -0.96875 0
-0.765625 -0.984375 0
-0.75 -0.984375 0
-0.765625 -0.96875 0
-0.75 -0.96875 0
-0.8125 -0.96875 0
-0.796875 -0.96875 0
-0.8125 -0.953125 0
-0.796875 -0.953125 0
-0.796875 -0.96875 0
-0.78125 -0.96875 0
-0.796875 -0.953125 0
-0.78125 -0.953125 0
-0.8125 -0.953125 0
-0.796875 -0.953125 0
-0.8125 -0.9375 0
-0.796875 -0.9375 0
-0.796875 -0.953125 0
-0.78125 -0.953125 0
-0.796875 -0.9375 0
-0.78125 -0.9375 0
-0.78125 -0.96875 0
-0.765625 -0.96875 0
-0.78125 -0.953125 0
-0.765625 -0.953125 0
-0.765625 -0.96875 0
-0.75 -0.96875 0
-0.765625 -0.953125 0
-0.75 -0.953125 0
-0.78125 -0.953125 0
-0.765625 -0.953125 0
-0.78125 -0.9375 0
-0.765625 -0.9375 0
-0.765625 -0.953125 0
-0.75 -0.953125 0
-0.765625 -0.9375 0
-0.75 -0.9375 0
-0.875 -0.9375 0
-0.859375 -0.9375 0
-0.875 -0.921875 0
-0.859375 -0.921875 0
-0.859375 -0.9375 0
-0.84375 -0.9375 0
-0.859375 -0.921875 0
-0.84375 -0.921875 0
-0.875 -0.921875 0
-0.859375 -0.921875 0
-0.875 -0.90625 0
-0.859375 -0.90625 0
-0.859375 -0.921875 0
-0.84375 -0.921875 0
-0.859375 -0.90625 0
-0.84375 -0.90625 0
-0.84375 -0.9375 0
-0.828125 -0.9375 0
-0.84375 -0.921875 0
-0.828125 -0.921875 0
-0.828125 -0.9375 0
-0.8125 -0.9375 0
-0.828125 -0.921875 0
-0.8125 -0.921875 0
-0.84375 -0.921875 0
-0.828125 -0.921875 0
-0.84375 -0.90625 0
-0.828125 -0.90625 0
-0.828125 -0.921875 0
-0.8125 -0.921875 0
-0.828125 -0.90625 0
-0.8125 -0.90625 0
-0.875 -0.90625 0
-0.859375 -0.90625 0
-0.875 -0.890625 0
-0.859375 -0.890625 0
-0.859375 -0.90625 0
-0.84375 -0.90625 0
-0.859375 -0.890625 0
-0.84375 -0.890625 0
-0.875 -0.890625 0
-0.859375 -0.890625 0
-0.875 -0.875 0
-0.859375 -0.875 0
-0.859375 -0.890625 0
-0.84375 -0.890625 0
-0.859375 -0.875 0
-0.84375 -0.875 0
-0.84375 -0.90625 0
-0.828125 -0.90625 0
-0.84375 -0.890625 0
-0.828125 -0.890625 0
-0.828125 -0.90625 0
-0.8125 -0.90625 0
-0.828125 -0.890625 0
-0.8125 -0.890625 0
-0.84375 -0.890625 0
-0.828125 -0.890625 0
-0.84375 -0.875 0
-0.828125 -0.875 0
-0.828125 -0.890625 0
-0.8125 -0.890625 0
-0.828125 -0.875 0
-0.8125 -0.875 0
-0.8125 -0.9375 0
-0.796875 -0.9375 0
-0.8125 -0.921875 0
-0.796875 -0.921875 0
-0.796875 -0.9375 0
-0.78125 -0.9375 0
-0.796875 -0.921875 0
-0.78125 -0.921875 0
-0.8125 -0.921875 0
-0.796875 -0.921875 0
-0.8125 -0.90625 0
-0.796875 -0.90625 0
-0.796875 -0.921875 0
-0.78125 -0.921875 0
-0.796875 -0.90625 0
-0.78125 -0.90625 0
-0.78125 -0.9375 0
-0.765625 -0.9375 0
-0.78125 -0.921875 0
-0.765625 -0.921875 0
-0.765625 -0.9375 0
-0.75 -0.9375 0
-0.765625 -0.921875 0
-0.75 -0.921875 0
-0.78125 -0.921875 0
-0.765625 -0.921875 0
-0.78125 -0.90625 0
-0.765625 -0.90625 0
-0.765625 -0.921875 0
-0.75 -0.921875 0
-0.765625 -0.90625 0
-0.75 -0.90625 0
-0.8125 -0.90625 0
-0.796875 -0.90625 0
-0.8125 -0.890625 0
-0.796875 -0.890625 0
-0.796875 -0.90625 0
[...]
  <PointData Scalars="scalars">
    <DataArray type="Float32" Name="U" format="ascii">
0 0 0 -0.00601061 0 0 -0.00601061 -0.0101359 0 -0.00601061 0 -0.0119033 -0.00601061 -0.0101359 -0.0119033 -0.0201237 0 0 -0.0101359 -0.0115781 0 0 -0.0115781 -0.0109418 -0.0101359 -0.0115781 -0.0201237 -0.0230177 -0.0115781 -0.0109418 -0.0230177 -0.0219157 0 -0.0119033 0 -0.0175782 -0.0119033 -0.0201237 -0.0175782 -0.0297736 0 -0.0175782 0 -0.0229275 -0.0175782 -0.0297736 -0.0229275 -0.0389317 -0.0201237 -0.0230177 -0.0297736 -0.034223 -0.0230177 -0.0219157 -0.034223 -0.0328453 -0.0297736 -0.034223 -0.0389317 -0.0450498 -0.034223 -0.0328453 -0.0450498 -0.0436944 0 0 -0.0109418 -0.00995545 0 0 -0.00995545 -0.0101025 -0.0109418 -0.00995545 -0.0219157 -0.0200268 -0.00995545 -0.0101025 -0.0200268 -0.0205041 0 0 -0.0101025 -0.0119905 0 0 -0.0119905 -0.0147531 -0.0101025 -0.0119905 -0.0205041 -0.0242043 -0.0119905 -0.0147531 -0.0242043 -0.029792 -0.0219157 -0.0200268 -0.0328453 -0.0303793 -0.0200268 -0.0205041 -0.0303793 -0.0313023 -0.0328453 -0.0303793 -0.0436944 -0.0410434 -0.0303793 -0.0313023 -0.0410434 -0.0426278 -0.0205041 -0.0242043 -0.0313023 -0.036916 -0.0242043 -0.029792 -0.036916 -0.0450892 -0.0313023 -0.036916 -0.0426278 -0.0501708 -0.036916 -0.0450892 -0.0501708 -0.0606916 0 -0.0229275 0 -0.0278603 -0.0229275 -0.0389317 -0.0278603 -0.0475044 0 -0.0278603 0 -0.0323446 -0.0278603 -0.0475044 -0.0323446 -0.0554123 -0.0389317 -0.0450498 -0.0475044 -0.055387 -0.0450498 -0.0436944 -0.055387 -0.0545182 -0.0475044 -0.055387 -0.0554123 -0.0652532 -0.055387 -0.0545182 -0.0652532 -0.0653168 0 -0.0323446 0 -0.0363378 -0.0323446 -0.0554123 -0.0363378 -0.0625983 0 -0.0363378 0 -0.0398478 -0.0363378 -0.0625983 -0.0398478 -0.06912 -0.0554123 -0.0652532 -0.0625983 -0.0745956 -0.0652532 -0.0653168 -0.0745956 -0.0760864 -0.0625983 -0.0745956 -0.06912 -0.0834724 -0.0745956 -0.0760864 -0.0834724 -0.0869779 -0.0436944 -0.0410434 -0.0545182 -0.0520931 -0.0410434 -0.0426278 -0.0520931 -0.0547472 -0.0545182 -0.0520931 -0.0653168 -0.0637093 -0.0520931 -0.0547472 -0.0637093 -0.067717 -0.0426278 -0.0501708 -0.0547472 -0.0641386 -0.0501708 -0.0606916 -0.0641386 -0.0769003 -0.0547472 -0.0641386 -0.067717 -0.0790135 -0.0641386 -0.0769003 -0.0790135 -0.0936164 -0.0653168 -0.0637093 -0.0760864 -0.0758995 -0.0637093 -0.067717 -0.0758995 -0.0815944 -0.0760864 -0.0758995 -0.0869779 -0.0887731 -0.0758995 -0.0815944 -0.0887731 -0.0965582 -0.067717 -0.0790135 -0.0815944 -0.0947988 -0.0790135 -0.0936164 -0.0947988 -0.110912 -0.0815944 -0.0947988 -0.0965582 -0.111553 -0.0947988 -0.110912 -0.111553 -0.128886 0 0 -0.0147531 -0.017379 0 0 -0.017379 -0.0191366 -0.0147531 -0.017379 -0.029792 -0.0348323 -0.017379 -0.0191366 -0.0348323 -0.0384461 0 0 -0.0191366 -0.0206479 0 0 -0.0206479 -0.022379 -0.0191366 -0.0206479 -0.0384461 -0.0412825 -0.0206479 -0.022379 -0.0412825 -0.0449584 -0.029792 -0.0348323 -0.0450892 -0.0524735 -0.0348323 -0.0384461 -0.0524735 -0.0576228 -0.0450892 -0.0524735 -0.0606916 -0.0701445 -0.0524735 -0.0576228 -0.0701445 -0.076592 -0.0384461 -0.0412825 -0.0576228 -0.0618445 -0.0412825 -0.0449584 -0.0618445 -0.0671901 -0.0576228 -0.0618445 -0.076592 -0.0820793 -0.0618445 -0.0671901 -0.0820793 -0.0890832 0 0 -0.022379 -0.0245323 0 0 -0.0245323 -0.0257976 -0.022379 -0.0245323 -0.0449584 -0.0490989 -0.0245323 -0.0257976 -0.0490989 -0.051908 0 0 -0.0257976 -0.0252666 0 0 -0.0252666 -0.0223739 -0.0257976 -0.0252666 -0.051908 -0.0506557 -0.0252666 -0.0223739 -0.0506557 -0.0450773 -0.0449584 -0.0490989 -0.0671901 -0.073505 -0.0490989 -0.051908 -0.073505 -0.0776189 -0.0671901 -0.073505 -0.0890832 -0.0975706 -0.073505 -0.0776189 -0.0975706 -0.103139 -0.051908 -0.0506557 -0.0776189 -0.0759922 -0.0506557 -0.0450773 -0.0759922 -0.0675142 -0.0776189 -0.0759922 -0.103139 -0.10117 -0.0759922 -0.0675142 -0.10117 -0.0899142 -0.0606916 -0.0701445 -0.0769003 -0.0879753 -0.0701445 -0.076592 -0.0879753 -0.0956345 -0.0769003 -0.0879753 -0.0936164 -0.106027 -0.0879753 -0.0956345 -0.106027 -0.114473 -0.076592 -0.0820793 -0.0956345 -0.102094 -0.0820793 -0.0890832 -0.102094 -0.11085 -0.0956345 -0.102094 -0.114473 -0.121913 -0.102094 -0.11085 -0.121913 -0.132184 -0.0936164 -0.106027 -0.110912 -0.124301 -0.106027 -0.114473 -0.124301 -0.133289 -0.110912 -0.124301 -0.128886 -0.142758 -0.124301 -0.133289 -0.142758 -0.152089 -0.114473 -0.121913 -0.133289 -0.141594 -0.121913 -0.132184 -0.141594 -0.153316 -0.133289 -0.141594 -0.152089 -0.161038 -0.141594 -0.153316 -0.161038 -0.174174 -0.0890832 -0.0975706 -0.11085 -0.121266 -0.0975706 -0.103139 -0.121266 -0.128446 -0.11085 -0.121266 -0.132184 -0.144708 -0.121266 -0.128446 -0.144708 -0.153331 -0.103139 -0.10117 -0.128446 -0.126022 -0.10117 -0.0899142 -0.126022 -0.112208 -0.128446 -0.126022 -0.153331 -0.150827 -0.126022 -0.112208 -0.150827 -0.134298 -0.132184 -0.144708 -0.153316 -0.167754 -0.144708 -0.153331 -0.167754 -0.177731 -0.153316 -0.167754 -0.174174 -0.190272 -0.167754 -0.177731 -0.190272 -0.201543 -0.153331 -0.150827 -0.177731 -0.174998 -0.150827 -0.134298 -0.174998 -0.155899 -0.177731 -0.174998 -0.201543 -0.198549 -0.174998 -0.155899 -0.198549 -0.177079 0 -0.0398478 0 -0.0428734 -0.0398478 -0.06912 -0.0428734 -0.0749446 0 -0.0428734 0 -0.0454871 -0.0428734 -0.0749446 -0.0454871 -0.0802091 -0.06912 -0.0834724 -0.0749446 -0.0918642 -0.0834724 -0.0869779 -0.0918642 -0.0978878 -0.0749446 -0.0918642 -0.0802091 -0.0999297 -0.0918642 -0.0978878 -0.0999297 -0.108986 0 -0.0454871 0 -0.0477377 -0.0454871 -0.0802091 -0.0477377 -0.0849808 0 -0.0477377 0 -0.0497384 -0.0477377 -0.0849808 -0.0497384 -0.0894551 -0.0802091 -0.0999297 -0.0849808 -0.107715 -0.0999297 -0.108986 -0.107715 -0.12024 -0.0849808 -0.107715 -0.0894551 -0.115428 -0.107715 -0.12024 -0.115428 -0.131826 -0.0869779 -0.0887731 -0.0978878 -0.10224 -0.0887731 -0.0965582 -0.10224 -0.11239 -0.0978878 -0.10224 -0.108986 -0.116413 -0.10224 -0.11239 -0.116413 -0.129179 -0.0965582 -0.111553 -0.11239 -0.129127 -0.111553 -0.128886 -0.129127 -0.147312 -0.11239 -0.129127 -0.129179 -0.147521 -0.129127 -0.147312 -0.147521 -0.166189 -0.108986 -0.116413 -0.12024 -0.131177 -0.116413 -0.129179 -0.131177 -0.146717 -0.12024 -0.131177 -0.131826 -0.146616 -0.131177 -0.146717 -0.146616 -0.16504 -0.129179 -0.147521 -0.146717 -0.166531 -0.147521 -0.166189 -0.166531 -0.185362 -0.146717 -0.166531 -0.16504 -0.186137 -0.166531 -0.185362 -0.186137 -0.204855 0 -0.0497384 0 -0.0515719 -0.0497384 -0.0894551 -0.0515719 -0.0937559 0 -0.0515719 0 -0.0533429 -0.0515719 -0.0937559 -0.0533429 -0.0980286 -0.0894551 -0.115428 -0.0937559 -0.123154 -0.115428 -0.131826 -0.123154 -0.143736 -0.0937559 -0.123154 -0.0980286 -0.131028 -0.123154 -0.143736 -0.131028 -0.155978 0 -0.0533429 0 -0.0551601 -0.0533429 -0.0980286 -0.0551601 -0.102452 0 -0.0551601 0 -0.0571136 -0.0551601 -0.102452 -0.0571136 -0.107148 -0.0980286 -0.131028 -0.102452 -0.139193 -0.131028 -0.155978 -0.139193 -0.16863 -0.102452 -0.139193 -0.107148 -0.147729 -0.139193 -0.16863 -0.147729 -0.181647 -0.131826 -0.146616 -0.143736 -0.162594 -0.146616 -0.16504 -0.162594 -0.183922 -0.143736 -0.162594 -0.155978 -0.179012 -0.162594 -0.183922 -0.179012 -0.203124 -0.16504 -0.186137 -0.183922 -0.206097 -0.186137 -0.204855 -0.206097 -0.224489 -0.183922 -0.206097 -0.203124 -0.22618 -0.206097 -0.224489 -0.22618 -0.244033 -0.155978 -0.179012 -0.16863 -0.195814 -0.179012 -0.203124 -0.195814 -0.222571 -0.16863 -0.195814 -0.181647 -0.212834 -0.195814 -0.222571 -0.212834 -0.241986 -0.203124 -0.22618 -0.222571 -0.246283 -0.22618 -0.244033 -0.246283 -0.263515 -0.222571 -0.246283 -0.241986 -0.26616 -0.246283 -0.263515 -0.26616 -0.282742 -0.128886 -0.142758 -0.147312 -0.161391 -0.142758 -0.152089 -0.161391 -0.170881 -0.147312 -0.161391 -0.166189 -0.180104 -0.161391 -0.170881 -0.180104 -0.189573 -0.152089 -0.161038 -0.170881 -0.180532 -0.161038 -0.174174 -0.180532 -0.194958 -0.170881 -0.180532 -0.189573 -0.199822 -0.180532 -0.194958 -0.199822 -0.215385 -0.166189 -0.180104 -0.185362 -0.198916 -0.180104 -0.189573 -0.198916 -0.208332 -0.185362 -0.198916 -0.204855 -0.217842 -0.198916 -0.208332 -0.217842 -0.227227 -0.189573 -0.199822 -0.208332 -0.219282 -0.199822 -0.215385 -0.219282 -0.235861 -0.208332 -0.219282 -0.227227 -0.238883 -0.219282 -0.235861 -0.238883 -0.256365 -0.174174 -0.190272 -0.194958 -0.212544 -0.190272 -0.201543 -0.212544 -0.224707 -0.194958 -0.212544 -0.215385 -0.234093 -0.212544 -0.224707 -0.234093 -0.246805 -0.201543 -0.198549 -0.224707 -0.221295 -0.198549 -0.177079 -0.221295 -0.197357 -0.224707 -0.221295 -0.246805 -0.242811 -0.221295 -0.197357 -0.242811 -0.216611 -0.215385 -0.234093 -0.235861 -0.255346 -0.234093 -0.246805 -0.255346 -0.268032 -0.235861 -0.255346 -0.256365 -0.276137 -0.255346 -0.268032 -0.276137 -0.288298 -0.246805 -0.242811 -0.268032 -0.263101 -0.242811 -0.216611 -0.263101 -0.234549 -0.268032 -0.263101 -0.288298 -0.282014 -0.263101 -0.234549 -0.282014 -0.251244 -0.204855 -0.217842 -0.224489 -0.236826 -0.217842 -0.227227 -0.236826 -0.246288 -0.224489 -0.236826 -0.244033 -0.255744 -0.236826 -0.246288 -0.255744 -0.265404 -0.227227 -0.238883 -0.246288 -0.258746 -0.238883 -0.256365 -0.258746 -0.276969 -0.246288 -0.258746 -0.265404 -0.278809 -0.258746 -0.276969 -0.278809 -0.297592 -0.244033 -0.255744 -0.263515 -0.274648 -0.255744 -0.265404 -0.274648 -0.284702 -0.263515 -0.274648 -0.282742 -0.29349 -0.274648 -0.284702 -0.29349 -0.304184 -0.265404 -0.278809 -0.284702 -0.299076 -0.278809 -0.297592 -0.299076 -0.318211 -0.284702 -0.299076 -0.304184 -0.319664 -0.299076 -0.318211 -0.319664 -0.338963 -0.256365 -0.276137 -0.276969 -0.296541 -0.276137 -0.288298 -0.296541 -0.307488 -0.276969 -0.296541 -0.297592 -0.316511 -0.296541 -0.307488 -0.316511 -0.325585 -0.288298 -0.282014 -0.307488 -0.299407 -0.282014 -0.251244 -0.299407 -0.266337 -0.307488 -0.299407 -0.325585 -0.315235 -0.299407 -0.266337 -0.315235 -0.279786 -0.297592 -0.316511 -0.318211 -0.335887 -0.316511 -0.325585 -0.335887 -0.342466 -0.318211 -0.335887 -0.338963 -0.354958 -0.335887 -0.342466 -0.354958 -0.358423 -0.325585 -0.315235 -0.342466 -0.329347 -0.315235 -0.279786 -0.329347 -0.291515 -0.342466 -0.329347 -0.358423 -0.342053 -0.329347 -0.291515 -0.342053 -0.301589 0 0 -0.0223739 -0.0181233 0 0 -0.0181233 -0.0130271 -0.0223739 -0.0181233 -0.0450773 -0.0362074 -0.0181233 -0.0130271 -0.0362074 -0.0260021 0 0 -0.0130271 -0.00737335 0 0 -0.00737335 -0.000741595 -0.0130271 -0.00737335 -0.0260021 -0.0143446 -0.00737335 -0.000741595 -0.0143446 -0.00121129 -0.0450773 -0.0362074 -0.0675142 -0.05432 -0.0362074 -0.0260021 -0.05432 -0.0386178 -0.0675142 -0.05432 -0.0899142 -0.0720414 -0.05432 -0.0386178 -0.0720414 -0.0506233 -0.0260021 -0.0143446 -0.0386178 -0.0211557 -0.0143446 -0.00121129 -0.0211557 -0.00132246 -0.0386178 -0.0211557 -0.0506233 -0.0269056 -0.0211557 -0.00132246 -0.0269056 -0.000769229 0 0 -0.000741595 0.00621612 0 0 0.00621612 0.0120991 -0.000741595 0.00621612 -0.00121129 0.012612 0.00621612 0.0120991 0.012612 0.0242676 0 0 0.0120991 0.0160508 0 0 0.0160508 0.0186158 0.0120991 0.0160508 0.0242676 0.0321357 0.0160508 0.0186158 0.0321357 0.0377376 -0.00121129 0.012612 -0.00132246 0.0190591 0.012612 0.0242676 0.0190591 0.0365613 -0.00132246 0.0190591 -0.000769229 0.0258221 0.0190591 0.0365613 0.0258221 0.0484232 0.0242676 0.0321357 0.0365613 0.0484607 0.0321357 0.0377376 0.0484607 0.0570626 0.0365613 0.0484607 0.0484232 0.064573 0.0484607 0.0570626 0.064573 0.0764262 -0.0899142 -0.0720414 -0.112208 -0.0894605 -0.0720414 -0.0506233 -0.0894605 -0.0622074 -0.112208 -0.0894605 -0.134298 -0.106796 -0.0894605 -0.0622074 -0.106796 -0.0730641 -0.0506233 -0.0269056 -0.0622074 -0.0319841 -0.0269056 -0.000769229 -0.0319841 0.000447789 -0.0622074 -0.0319841 -0.0730641 -0.0362066 -0.0319841 0.000447789 -0.0362066 0.00268245 -0.134298 -0.106796 -0.155899 -0.123481 -0.106796 -0.0730641 -0.123481 -0.0832979 -0.155899 -0.123481 -0.177079 -0.13978 -0.123481 -0.0832979 -0.13978 -0.0929587 -0.0730641 -0.0362066 -0.0832979 -0.0395094 -0.0362066 0.00268245 -0.0395094 0.0055396 -0.0832979 -0.0395094 -0.0929587 -0.0419312 -0.0395094 0.0055396 -0.0419312 0.00950407 -0.000769229 0.0258221 0.000447789 0.0329984 0.0258221 0.0484232 0.0329984 0.0607566 0.000447789 0.0329984 0.00268245 0.040574 0.0329984 0.0607566 0.040574 0.0731007 0.0484232 0.064573 0.0607566 0.0810776 0.064573 0.0764262 0.0810776 0.0965329 0.0607566 0.0810776 0.0731007 0.0975704 0.0810776 0.0965329 0.0975704 0.116858 0.00268245 0.040574 0.0055396 0.0486595 0.040574 0.0731007 0.0486595 0.08555 0.0055396 0.0486595 0.00950407 0.0576372 0.0486595 0.08555 0.0576372 0.0986985 0.0731007 0.0975704 0.08555 0.114335 0.0975704 0.116858 0.114335 0.137395 0.08555 0.114335 0.0986985 0.131482 0.114335 0.137395 0.131482 0.158251 0 0 0.0186158 0.0218404 0 0 0.0218404 0.025583 0.0186158 0.0218404 0.0377376 0.0439835 0.0218404 0.025583 0.0439835 0.0517221 0 0 0.025583 0.0285424 0 0 0.0285424 0.0275962 0.025583 0.0285424 0.0517221 0.0566051 0.0285424 0.0275962 0.0566051 0.0549686 0.0377376 0.0439835 0.0570626 0.0663612 0.0439835 0.0517221 0.0663612 0.0772095 0.0570626 0.0663612 0.0764262 0.0891601 0.0663612 0.0772095 0.0891601 0.102563 0.0517221 0.0566051 0.0772095 0.0841996 0.0566051 0.0549686 0.0841996 0.0813216 0.0772095 0.0841996 0.102563 0.110652 0.0841996 0.0813216 0.110652 0.105987 0 0 0.0275962 0.0235475 0 0 0.0235475 0.0181306 0.0275962 0.0235475 0.0549686 0.0462185 0.0235475 0.0181306 0.0462185 0.036354 0 0 0.0181306 0.0147293 0 0 0.0147293 0.0129434 0.0181306 0.0147293 0.036354 0.0292834 0.0147293 0.0129434 0.0292834 0.0260567 0.0549686 0.0462185 0.0813216 0.0689977 0.0462185 0.036354 0.0689977 0.054173 0.0813216 0.0689977 0.105987 0.0901799 0.0689977 0.054173 0.0901799 0.0715298 0.036354 0.0292834 0.054173 0.0439463 0.0292834 0.0260567 0.0439463 0.0384767 0.054173 0.0439463 0.0715298 0.0583633 0.0439463 0.0384767 0.0583633 0.0506932 0.0764262 0.0891601 0.0965329 0.111906 0.0891601 0.102563 0.111906 0.127306 0.0965329 0.111906 0.116858 0.135093 0.111906 0.127306 0.135093 0.151465 0.102563 0.110652 0.127306 0.13523 0.110652 0.105987 0.13523 0.129 0.127306 0.13523 0.151465 0.15848 0.13523 0.129 0.15848 0.149675 0.116858 0.135093 0.137395 0.158165 0.135093 0.151465 0.158165 0.17472 0.137395 0.158165 0.158251 0.18098 0.158165 0.17472 0.18098 0.196909 0.151465 0.15848 0.17472 0.179955 0.15848 0.149675 0.179955 0.168579 0.17472 0.179955 0.196909 0.199448 0.179955 0.168579 0.199448 0.185258 0.105987 0.0901799 0.129 0.109751 0.0901799 0.0715298 0.109751 0.0879273 0.129 0.109751 0.149675 0.12785 0.109751 0.0879273 0.12785 0.103252 0.0715298 0.0583633 0.0879273 0.0716905 0.0583633 0.0506932 0.0716905 0.061708 0.0879273 0.0716905 0.103252 0.0845371 0.0716905 0.061708 0.0845371 0.0716299 0.149675 0.12785 0.168579 0.144377 0.12785 0.103252 0.144377 0.117745 0.168579 0.144377 0.185258 0.159189 0.144377 0.117745 0.159189 0.130973 0.103252 0.0845371 0.117745 0.0965904 0.0845371 0.0716299 0.0965904 0.0808164 0.117745 0.0965904 0.130973 0.107478 0.0965904 0.0808164 0.107478 0.088479 -0.177079 -0.13978 -0.197357 -0.155295 -0.13978 -0.0929587 -0.155295 -0.101795 -0.197357 -0.155295 -0.216611 -0.170103 -0.155295 -0.101795 -0.170103 -0.110131 -0.0929587 -0.0419312 -0.101795 -0.0435043 -0.0419312 0.00950407 -0.0435043 0.0143049 -0.101795 -0.0435043 -0.110131 -0.0445253 -0.0435043 0.0143049 -0.0445253 0.0198644 -0.216611 -0.170103 -0.234549 -0.183867 -0.170103 -0.110131 -0.183867 -0.117686 -0.234549 -0.183867 -0.251244 -0.196698 -0.183867 -0.117686 -0.196698 -0.124802 -0.110131 -0.0445253 -0.117686 -0.0449346 -0.0445253 0.0198644 -0.0449346 0.0260387 -0.117686 -0.0449346 -0.124802 -0.0449704 -0.0449346 0.0260387 -0.0449704 0.0326778 0.00950407 0.0576372 0.0143049 0.0673188 0.0576372 0.0986985 0.0673188 0.112326 0.0143049 0.0673188 0.0198644 0.0777945 0.0673188 0.112326 0.0777945 0.126651 0.0986985 0.131482 0.112326 0.149034 0.131482 0.158251 0.149034 0.179216 0.112326 0.149034 0.126651 0.166781 0.149034 0.179216 0.166781 0.199867 0.0198644 0.0777945 0.0260387 0.0889421 0.0777945 0.126651 0.0889421 0.141504 0.0260387 0.0889421 0.0326778 0.100865 0.0889421 0.141504 0.100865 0.157104 0.126651 0.166781 0.141504 0.184809 0.166781 0.199867 0.184809 0.220097 0.141504 0.184809 0.157104 0.203139 0.184809 0.220097 0.203139 0.239858 -0.251244 -0.196698 -0.266337 -0.208403 -0.196698 -0.124802 -0.208403 -0.131287 -0.266337 -0.208403 -0.279786 -0.218801 -0.208403 -0.131287 -0.218801 -0.137072 -0.124802 -0.0449704 -0.131287 -0.0448733 -0.0449704 0.0326778 -0.0448733 0.0394969 -0.131287 -0.0448733 -0.137072 -0.0445027 -0.0448733 0.0394969 -0.0445027 0.0463377 -0.279786 -0.218801 -0.291515 -0.227872 -0.218801 -0.137072 -0.227872 -0.142205 -0.291515 -0.227872 -0.301589 -0.235498 -0.227872 -0.142205 -0.235498 -0.146436 -0.137072 -0.0445027 -0.142205 -0.0440522 -0.0445027 0.0463377 -0.0440522 0.0530522 -0.142205 -0.0440522 -0.146436 -0.0434346 -0.0440522 0.0530522 -0.0434346 0.0593573 0.0326778 0.100865 0.0394969 0.113036 0.100865 0.157104 0.113036 0.173116 0.0394969 0.113036 0.0463377 0.125365 0.113036 0.173116 0.125365 0.189153 0.157104 0.203139 0.173116 0.221463 0.203139 0.239858 0.221463 0.258957 0.173116 0.221463 0.189153 0.239512 0.221463 0.258957 0.239512 0.276945 0.0463377 0.125365 0.0530522 0.137609 0.125365 0.189153 0.137609 0.205205 0.0530522 0.137609 0.0593573 0.149219 0.137609 0.205205 0.149219 0.220591 0.189153 0.239512 0.205205 0.257191 0.239512 0.276945 0.257191 0.293992 0.205205 0.257191 0.220591 0.274173 0.257191 0.293992 0.274173 0.309989 0.158251 0.18098 0.179216 0.203475 0.18098 0.196909 0.203475 0.217898 0.179216 0.203475 0.199867 0.224795 0.203475 0.217898 0.224795 0.237179 0.196909 0.199448 0.217898 0.217064 0.199448 0.185258 0.217064 0.19972 0.217898 0.217064 0.237179 0.232555 0.217064 0.19972 0.232555 0.212238 0.199867 0.224795 0.220097 0.245101 0.224795 0.237179 0.245101 0.254622 0.220097 0.245101 0.239858 0.264061 0.245101 0.254622 0.264061 0.270414 0.237179 0.232555 0.254622 0.246013 0.232555 0.212238 0.246013 0.222574 0.254622 0.246013 0.270414 0.257641 0.246013 0.222574 0.257641 0.231327 0.185258 0.159189 0.19972 0.171869 0.159189 0.130973 0.171869 0.142435 0.19972 0.171869 0.212238 0.182901 0.171869 0.142435 0.182901 0.152328 0.130973 0.107478 0.142435 0.116713 0.107478 0.088479 0.116713 0.0947968 0.142435 0.116713 0.152328 0.124468 0.116713 0.0947968 0.124468 0.099422 0.212238 0.182901 0.222574 0.192083 0.182901 0.152328 0.192083 0.160601 0.222574 0.192083 0.231327 0.199387 0.192083 0.160601 0.199387 0.166977 0.152328 0.124468 0.160601 0.130709 0.124468 0.099422 0.130709 0.102826 0.160601 0.130709 0.166977 0.135197 0.130709 0.102826 0.135197 0.105058 0.239858 0.264061 0.258957 0.281586 0.264061 0.270414 0.281586 0.284318 0.258957 0.281586 0.276945 0.297433 0.281586 0.284318 0.297433 0.296317 0.270414 0.257641 0.284318 0.267463 0.257641 0.231327 0.267463 0.238369 0.284318 0.267463 0.296317 0.275626 0.267463 0.238369 0.275626 0.243993 0.276945 0.297433 0.293992 0.311661 0.297433 0.296317 0.311661 0.306557 0.293992 0.311661 0.309989 0.324533 0.311661 0.306557 0.324533 0.315282 0.296317 0.275626 0.306557 0.282113 0.275626 0.243993 0.282113 0.248077 0.306557 0.282113 0.315282 0.287279 0.282113 0.248077 0.287279 0.251049 0.231327 0.199387 0.238369 0.205393 0.199387 0.166977 0.205393 0.17202 0.238369 0.205393 0.243993 0.209773 0.205393 0.17202 0.209773 0.175503 0.166977 0.135197 0.17202 0.138546 0.135197 0.105058 0.138546 0.106005 0.17202 0.138546 0.175503 0.140633 0.138546 0.106005 0.140633 0.106605 0.243993 0.209773 0.248077 0.212718 0.209773 0.175503 0.212718 0.177624 0.248077 0.212718 0.251049 0.214478 0.212718 0.177624 0.214478 0.178649 0.175503 0.140633 0.177624 0.141794 0.140633 0.106605 0.141794 0.106453 0.177624 0.141794 0.178649 0.141912 0.141794 0.106453 0.141912 0.105765 0 -0.0571136 0 -0.059296 -0.0571136 -0.107148 -0.059296 -0.112254 0 -0.059296 0 -0.0617487 -0.059296 -0.112254 -0.0617487 -0.117807 -0.107148 -0.147729 -0.112254 -0.15675 -0.147729 -0.181647 -0.15675 