<?xml version="1.0" ?> 
<!-- 
# vtk DataFile Version 3.0
#This file was generated by the deal.II library on 21:46:04 at 2021/4/29
-->
<VTKFile type="UnstructuredGrid" version="0.1" byte_order="LittleEndian">
<UnstructuredGrid>
<Piece NumberOfPoints="65536" NumberOfCells="16384" >
  <Points>
    <DataArray type="Float32" NumberOfComponents="3" format="ascii">
-1 -1 0
-0.984375 -1 0
-1 -0.984375 0
-0.984375 -0.984375 0
-0.984375 -1 0
-0.96875 -1 0
-0.984375 -0.984375 0
-0.96875 -0.984375 0
-1 -0.984375 0
-0.984375 -0.984375 0
-1 -0.96875 0
-0.984375 -0.96875 0
-0.984375 -0.984375 0
-0.96875 -0.984375 0
-0.984375 -0.96875 0
-0.96875 -0.96875 0
-0.96875 -1 0
-0.953125 -1 0
-0.96875 -0.984375 0
-0.953125 -0.984375 0
-0.953125 -1 0
-0.9375 -1 0
-0.953125 -0.984375 0
-0.9375 -0.984375 0
-0.96875 -0.984375 0
-0.953125 -0.984375 0
-0.96875 -0.96875 0
-0.953125 -0.96875 0
-0.953125 -0.984375 0
-0.9375 -0.984375 0
-0.953125 -0.96875 0
-0.9375 -0.96875 0
-1 -0.96875 0
-0.984375 -0.96875 0
-1 -0.953125 0
-0.984375 -0.953125 0
-0.984375 -0.96875 0
-0.96875 -0.96875 0
-0.984375 -0.953125 0
-0.96875 -0.953125 0
-1 -0.953125 0
-0.984375 -0.953125 0
-1 -0.9375 0
-0.984375 -0.9375 0
-0.984375 -0.953125 0
-0.96875 -0.953125 0
-0.984375 -0.9375 0
-0.96875 -0.9375 0
-0.96875 -0.96875 0
-0.953125 -0.96875 0
-0.96875 -0.953125 0
-0.953125 -0.953125 0
-0.953125 -0.96875 0
-0.9375 -0.96875 0
-0.953125 -0.953125 0
-0.9375 -0.953125 0
-0.96875 -0.953125 0
-0.953125 -0.953125 0
-0.96875 -0.9375 0
-0.953125 -0.9375 0
-0.953125 -0.953125 0
-0.9375 -0.953125 0
-0.953125 -0.9375 0
-0.9375 -0.9375 0
-0.9375 -1 0
-0.921875 -1 0
-0.9375 -0.984375 0
-0.921875 -0.984375 0
-0.921875 -1 0
-0.90625 -1 0
-0.921875 -0.984375 0
-0.90625 -0.984375 0
-0.9375 -0.984375 0
-0.921875 -0.984375 0
-0.9375 -0.96875 0
-0.921875 -0.96875 0
-0.921875 -0.984375 0
-0.90625 -0.984375 0
-0.921875 -0.96875 0
-0.90625 -0.96875 0
-0.90625 -1 0
-0.890625 -1 0
-0.90625 -0.984375 0
-0.890625 -0.984375 0
-0.890625 -1 0
-0.875 -1 0
-0.890625 -0.984375 0
-0.875 -0.984375 0
-0.90625 -0.984375 0
-0.890625 -0.984375 0
-0.90625 -0.96875 0
-0.890625 -0.96875 0
-0.890625 -0.984375 0
-0.875 -0.984375 0
-0.890625 -0.96875 0
-0.875 -0.96875 0
-0.9375 -0.96875 0
-0.921875 -0.96875 0
-0.9375 -0.953125 0
-0.921875 -0.953125 0
-0.921875 -0.96875 0
-0.90625 -0.96875 0
-0.921875 -0.953125 0
-0.90625 -0.953125 0
-0.9375 -0.953125 0
-0.921875 -0.953125 0
-0.9375 -0.9375 0
-0.921875 -0.9375 0
-0.921875 -0.953125 0
-0.90625 -0.953125 0
-0.921875 -0.9375 0
-0.90625 -0.9375 0
-0.90625 -0.96875 0
-0.890625 -0.96875 0
-0.90625 -0.953125 0
-0.890625 -0.953125 0
-0.890625 -0.96875 0
-0.875 -0.96875 0
-0.890625 -0.953125 0
-0.875 -0.953125 0
-0.90625 -0.953125 0
-0.890625 -0.953125 0
-0.90625 -0.9375 0
-0.890625 -0.9375 0
-0.890625 -0.953125 0
-0.875 -0.953125 0
-0.890625 -0.9375 0
-0.875 -0.9375 0
-1 -0.9375 0
-0.984375 -0.9375 0
-1 -0.921875 0
-0.984375 -0.921875 0
-0.984375 -0.9375 0
-0.96875 -0.9375 0
-0.984375 -0.921875 0
-0.96875 -0.921875 0
-1 -0.921875 0
-0.984375 -0.921875 0
-1 -0.90625 0
-0.984375 -0.90625 0
-0.984375 -0.921875 0
-0.96875 -0.921875 0
-0.984375 -0.90625 0
-0.96875 -0.90625 0
-0.96875 -0.9375 0
-0.953125 -0.9375 0
-0.96875 -0.921875 0
-0.953125 -0.921875 0
-0.953125 -0.9375 0
-0.9375 -0.9375 0
-0.953125 -0.921875 0
-0.9375 -0.921875 0
-0.96875 -0.921875 0
-0.953125 -0.921875 0
-0.96875 -0.90625 0
-0.953125 -0.90625 0
-0.953125 -0.921875 0
-0.9375 -0.921875 0
-0.953125 -0.90625 0
-0.9375 -0.90625 0
-1 -0.90625 0
-0.984375 -0.90625 0
-1 -0.890625 0
-0.984375 -0.890625 0
-0.984375 -0.90625 0
-0.96875 -0.90625 0
-0.984375 -0.890625 0
-0.96875 -0.890625 0
-1 -0.890625 0
-0.984375 -0.890625 0
-1 -0.875 0
-0.984375 -0.875 0
-0.984375 -0.890625 0
-0.96875 -0.890625 0
-0.984375 -0.875 0
-0.96875 -0.875 0
-0.96875 -0.90625 0
-0.953125 -0.90625 0
-0.96875 -0.890625 0
-0.953125 -0.890625 0
-0.953125 -0.90625 0
-0.9375 -0.90625 0
-0.953125 -0.890625 0
-0.9375 -0.890625 0
-0.96875 -0.890625 0
-0.953125 -0.890625 0
-0.96875 -0.875 0
-0.953125 -0.875 0
-0.953125 -0.890625 0
-0.9375 -0.890625 0
-0.953125 -0.875 0
-0.9375 -0.875 0
-0.9375 -0.9375 0
-0.921875 -0.9375 0
-0.9375 -0.921875 0
-0.921875 -0.921875 0
-0.921875 -0.9375 0
-0.90625 -0.9375 0
-0.921875 -0.921875 0
-0.90625 -0.921875 0
-0.9375 -0.921875 0
-0.921875 -0.921875 0
-0.9375 -0.90625 0
-0.921875 -0.90625 0
-0.921875 -0.921875 0
-0.90625 -0.921875 0
-0.921875 -0.90625 0
-0.90625 -0.90625 0
-0.90625 -0.9375 0
-0.890625 -0.9375 0
-0.90625 -0.921875 0
-0.890625 -0.921875 0
-0.890625 -0.9375 0
-0.875 -0.9375 0
-0.890625 -0.921875 0
-0.875 -0.921875 0
-0.90625 -0.921875 0
-0.890625 -0.921875 0
-0.90625 -0.90625 0
-0.890625 -0.90625 0
-0.890625 -0.921875 0
-0.875 -0.921875 0
-0.890625 -0.90625 0
-0.875 -0.90625 0
-0.9375 -0.90625 0
-0.921875 -0.90625 0
-0.9375 -0.890625 0
-0.921875 -0.890625 0
-0.921875 -0.90625 0
-0.90625 -0.90625 0
-0.921875 -0.890625 0
-0.90625 -0.890625 0
-0.9375 -0.890625 0
-0.921875 -0.890625 0
-0.9375 -0.875 0
-0.921875 -0.875 0
-0.921875 -0.890625 0
-0.90625 -0.890625 0
-0.921875 -0.875 0
-0.90625 -0.875 0
-0.90625 -0.90625 0
-0.890625 -0.90625 0
-0.90625 -0.890625 0
-0.890625 -0.890625 0
-0.890625 -0.90625 0
-0.875 -0.90625 0
-0.890625 -0.890625 0
-0.875 -0.890625 0
-0.90625 -0.890625 0
-0.890625 -0.890625 0
-0.90625 -0.875 0
-0.890625 -0.875 0
-0.890625 -0.890625 0
-0.875 -0.890625 0
-0.890625 -0.875 0
-0.875 -0.875 0
-0.875 -1 0
-0.859375 -1 0
-0.875 -0.984375 0
-0.859375 -0.984375 0
-0.859375 -1 0
-0.84375 -1 0
-0.859375 -0.984375 0
-0.84375 -0.984375 0
-0.875 -0.984375 0
-0.859375 -0.984375 0
-0.875 -0.96875 0
-0.859375 -0.96875 0
-0.859375 -0.984375 0
-0.84375 -0.984375 0
-0.859375 -0.96875 0
-0.84375 -0.96875 0
-0.84375 -1 0
-0.828125 -1 0
-0.84375 -0.984375 0
-0.828125 -0.984375 0
-0.828125 -1 0
-0.8125 -1 0
-0.828125 -0.984375 0
-0.8125 -0.984375 0
-0.84375 -0.984375 0
-0.828125 -0.984375 0
-0.84375 -0.96875 0
-0.828125 -0.96875 0
-0.828125 -0.984375 0
-0.8125 -0.984375 0
-0.828125 -0.96875 0
-0.8125 -0.96875 0
-0.875 -0.96875 0
-0.859375 -0.96875 0
-0.875 -0.953125 0
-0.859375 -0.953125 0
-0.859375 -0.96875 0
-0.84375 -0.96875 0
-0.859375 -0.953125 0
-0.84375 -0.953125 0
-0.875 -0.953125 0
-0.859375 -0.953125 0
-0.875 -0.9375 0
-0.859375 -0.9375 0
-0.859375 -0.953125 0
-0.84375 -0.953125 0
-0.859375 -0.9375 0
-0.84375 -0.9375 0
-0.84375 -0.96875 0
-0.828125 -0.96875 0
-0.84375 -0.953125 0
-0.828125 -0.953125 0
-0.828125 -0.96875 0
-0.8125 -0.96875 0
-0.828125 -0.953125 0
-0.8125 -0.953125 0
-0.84375 -0.953125 0
-0.828125 -0.953125 0
-0.84375 -0.9375 0
-0.828125 -0.9375 0
-0.828125 -0.953125 0
-0.8125 -0.953125 0
-0.828125 -0.9375 0
-0.8125 -0.9375 0
-0.8125 -1 0
-0.796875 -1 0
-0.8125 -0.984375 0
-0.796875 -0.984375 0
-0.796875 -1 0
-0.78125 -1 0
-0.796875 -0.984375 0
-0.78125 -0.984375 0
-0.8125 -0.984375 0
-0.796875 -0.984375 0
-0.8125 -0.96875 0
-0.796875 -0.96875 0
-0.796875 -0.984375 0
-0.78125 -0.984375 0
-0.796875 -0.96875 0
-0.78125 -0.96875 0
-0.78125 -1 0
-0.765625 -1 0
-0.78125 -0.984375 0
-0.765625 -0.984375 0
-0.765625 -1 0
-0.75 -1 0
-0.765625 -0.984375 0
-0.75 -0.984375 0
-0.78125 -0.984375 0
-0.765625 -0.984375 0
-0.78125 -0.96875 0
-0.765625 -0.96875 0
-0.765625 -0.984375 0
-0.75 -0.984375 0
-0.765625 -0.96875 0
-0.75 -0.96875 0
-0.8125 -0.96875 0
-0.796875 -0.96875 0
-0.8125 -0.953125 0
-0.796875 -0.953125 0
-0.796875 -0.96875 0
-0.78125 -0.96875 0
-0.796875 -0.953125 0
-0.78125 -0.953125 0
-0.8125 -0.953125 0
-0.796875 -0.953125 0
-0.8125 -0.9375 0
-0.796875 -0.9375 0
-0.796875 -0.953125 0
-0.78125 -0.953125 0
-0.796875 -0.9375 0
-0.78125 -0.9375 0
-0.78125 -0.96875 0
-0.765625 -0.96875 0
-0.78125 -0.953125 0
-0.765625 -0.953125 0
-0.765625 -0.96875 0
-0.75 -0.96875 0
-0.765625 -0.953125 0
-0.75 -0.953125 0
-0.78125 -0.953125 0
-0.765625 -0.953125 0
-0.78125 -0.9375 0
-0.765625 -0.9375 0
-0.765625 -0.953125 0
-0.75 -0.953125 0
-0.765625 -0.9375 0
-0.75 -0.9375 0
-0.875 -0.9375 0
-0.859375 -0.9375 0
-0.875 -0.921875 0
-0.859375 -0.921875 0
-0.859375 -0.9375 0
-0.84375 -0.9375 0
-0.859375 -0.921875 0
-0.84375 -0.921875 0
-0.875 -0.921875 0
-0.859375 -0.921875 0
-0.875 -0.90625 0
-0.859375 -0.90625 0
-0.859375 -0.921875 0
-0.84375 -0.921875 0
-0.859375 -0.90625 0
-0.84375 -0.90625 0
-0.84375 -0.9375 0
-0.828125 -0.9375 0
-0.84375 -0.921875 0
-0.828125 -0.921875 0
-0.828125 -0.9375 0
-0.8125 -0.9375 0
-0.828125 -0.921875 0
-0.8125 -0.921875 0
-0.84375 -0.921875 0
-0.828125 -0.921875 0
-0.84375 -0.90625 0
-0.828125 -0.90625 0
-0.828125 -0.921875 0
-0.8125 -0.921875 0
-0.828125 -0.90625 0
-0.8125 -0.90625 0
-0.875 -0.90625 0
-0.859375 -0.90625 0
-0.875 -0.890625 0
-0.859375 -0.890625 0
-0.859375 -0.90625 0
-0.84375 -0.90625 0
-0.859375 -0.890625 0
-0.84375 -0.890625 0
-0.875 -0.890625 0
-0.859375 -0.890625 0
-0.875 -0.875 0
-0.859375 -0.875 0
-0.859375 -0.890625 0
-0.84375 -0.890625 0
-0.859375 -0.875 0
-0.84375 -0.875 0
-0.84375 -0.90625 0
-0.828125 -0.90625 0
-0.84375 -0.890625 0
-0.828125 -0.890625 0
-0.828125 -0.90625 0
-0.8125 -0.90625 0
-0.828125 -0.890625 0
-0.8125 -0.890625 0
-0.84375 -0.890625 0
-0.828125 -0.890625 0
-0.84375 -0.875 0
-0.828125 -0.875 0
-0.828125 -0.890625 0
-0.8125 -0.890625 0
-0.828125 -0.875 0
-0.8125 -0.875 0
-0.8125 -0.9375 0
-0.796875 -0.9375 0
-0.8125 -0.921875 0
-0.796875 -0.921875 0
-0.796875 -0.9375 0
-0.78125 -0.9375 0
-0.796875 -0.921875 0
-0.78125 -0.921875 0
-0.8125 -0.921875 0
-0.796875 -0.921875 0
-0.8125 -0.90625 0
-0.796875 -0.90625 0
-0.796875 -0.921875 0
-0.78125 -0.921875 0
-0.796875 -0.90625 0
-0.78125 -0.90625 0
-0.78125 -0.9375 0
-0.765625 -0.9375 0
-0.78125 -0.921875 0
-0.765625 -0.921875 0
-0.765625 -0.9375 0
-0.75 -0.9375 0
-0.765625 -0.921875 0
-0.75 -0.921875 0
-0.78125 -0.921875 0
-0.765625 -0.921875 0
-0.78125 -0.90625 0
-0.765625 -0.90625 0
-0.765625 -0.921875 0
-0.75 -0.921875 0
-0.765625 -0.90625 0
-0.75 -0.90625 0
-0.8125 -0.90625 0
-0.796875 -0.90625 0
-0.8125 -0.890625 0
-0.796875 -0.890625 0
-0.796875 -0.90625 0
[...]
  <PointData Scalars="scalars">
    <DataArray type="Float32" Name="U" format="ascii">
0 0 0 -0.000941909 0 0 -0.000941909 -0.00199461 0 -0.000941909 0 -0.00188742 -0.000941909 -0.00199461 -0.00188742 -0.00399432 0 0 -0.00199461 -0.00325586 0 0 -0.00325586 -0.00481064 -0.00199461 -0.00325586 -0.00399432 -0.0065213 -0.00325586 -0.00481064 -0.0065213 -0.0096286 0 -0.00188742 0 -0.00284486 -0.00188742 -0.00399432 -0.00284486 -0.00601371 0 -0.00284486 0 -0.00377984 -0.00284486 -0.00601371 -0.00377984 -0.00799947 -0.00399432 -0.0065213 -0.00601371 -0.0098161 -0.0065213 -0.0096286 -0.0098161 -0.0144721 -0.00601371 -0.0098161 -0.00799947 -0.0130454 -0.0098161 -0.0144721 -0.0130454 -0.0192531 0 0 -0.00481064 -0.00669277 0 0 -0.00669277 -0.00889448 -0.00481064 -0.00669277 -0.0096286 -0.0133992 -0.00669277 -0.00889448 -0.0133992 -0.0177957 0 0 -0.00889448 -0.0112982 0 0 -0.0112982 -0.0137148 -0.00889448 -0.0112982 -0.0177957 -0.0226144 -0.0112982 -0.0137148 -0.0226144 -0.0274333 -0.0096286 -0.0133992 -0.0144721 -0.0201254 -0.0133992 -0.0177957 -0.0201254 -0.0266883 -0.0144721 -0.0201254 -0.0192531 -0.0267529 -0.0201254 -0.0266883 -0.0267529 -0.0355057 -0.0177957 -0.0226144 -0.0266883 -0.0338819 -0.0226144 -0.0274333 -0.0338819 -0.041042 -0.0266883 -0.0338819 -0.0355057 -0.0450417 -0.0338819 -0.041042 -0.0450417 -0.0545899 0 -0.00377984 0 -0.0047332 -0.00377984 -0.00799947 -0.0047332 -0.0100086 0 -0.0047332 0 -0.00568576 -0.0047332 -0.0100086 -0.00568576 -0.0120107 -0.00799947 -0.0130454 -0.0100086 -0.0163198 -0.0130454 -0.0192531 -0.0163198 -0.0240559 -0.0100086 -0.0163198 -0.0120107 -0.0195894 -0.0163198 -0.0240559 -0.0195894 -0.028843 0 -0.00568576 0 -0.00664819 -0.00568576 -0.0120107 -0.00664819 -0.0140553 0 -0.00664819 0 -0.00761785 -0.00664819 -0.0140553 -0.00761785 -0.0160884 -0.0120107 -0.0195894 -0.0140553 -0.0228767 -0.0195894 -0.028843 -0.0228767 -0.0336872 -0.0140553 -0.0228767 -0.0160884 -0.0261826 -0.0228767 -0.0336872 -0.0261826 -0.0384986 -0.0192531 -0.0267529 -0.0240559 -0.0334111 -0.0267529 -0.0355057 -0.0334111 -0.0442761 -0.0240559 -0.0334111 -0.028843 -0.0400541 -0.0334111 -0.0442761 -0.0400541 -0.0530196 -0.0355057 -0.0450417 -0.0442761 -0.05613 -0.0450417 -0.0545899 -0.05613 -0.0679159 -0.0442761 -0.05613 -0.0530196 -0.0671822 -0.05613 -0.0679159 -0.0671822 -0.0811939 -0.028843 -0.0400541 -0.0336872 -0.0466762 -0.0400541 -0.0530196 -0.0466762 -0.0617622 -0.0336872 -0.0466762 -0.0384986 -0.0533162 -0.0466762 -0.0617622 -0.0533162 -0.0704272 -0.0530196 -0.0671822 -0.0617622 -0.0780818 -0.0671822 -0.0811939 -0.0780818 -0.0943037 -0.0617622 -0.0780818 -0.0704272 -0.0889717 -0.0780818 -0.0943037 -0.0889717 -0.107248 0 0 -0.0137148 -0.0158018 0 0 -0.0158018 -0.0171777 -0.0137148 -0.0158018 -0.0274333 -0.0316216 -0.0158018 -0.0171777 -0.0316216 -0.0343366 0 0 -0.0171777 -0.0173547 0 0 -0.0173547 -0.0159714 -0.0171777 -0.0173547 -0.0343366 -0.034692 -0.0173547 -0.0159714 -0.034692 -0.0318384 -0.0274333 -0.0316216 -0.041042 -0.0472561 -0.0316216 -0.0343366 -0.0472561 -0.0512499 -0.041042 -0.0472561 -0.0545899 -0.0627974 -0.0472561 -0.0512499 -0.0627974 -0.0681149 -0.0343366 -0.034692 -0.0512499 -0.0517245 -0.034692 -0.0318384 -0.0517245 -0.0474287 -0.0512499 -0.0517245 -0.0681149 -0.0686414 -0.0517245 -0.0474287 -0.0686414 -0.0628959 0 0 -0.0159714 -0.0127232 0 0 -0.0127232 -0.00767661 -0.0159714 -0.0127232 -0.0318384 -0.0253178 -0.0127232 -0.00767661 -0.0253178 -0.0150931 0 0 -0.00767661 -0.00108189 0 0 -0.00108189 0.00636164 -0.00767661 -0.00108189 -0.0150931 -0.00190529 -0.00108189 0.00636164 -0.00190529 0.0130775 -0.0318384 -0.0253178 -0.0474287 -0.0376609 -0.0253178 -0.0150931 -0.0376609 -0.0224104 -0.0474287 -0.0376609 -0.0628959 -0.0497671 -0.0376609 -0.0224104 -0.0497671 -0.0294649 -0.0150931 -0.00190529 -0.0224104 -0.00266884 -0.00190529 0.0130775 -0.00266884 0.0197179 -0.0224104 -0.00266884 -0.0294649 -0.00315482 -0.00266884 0.0197179 -0.00315482 0.026509 -0.0545899 -0.0627974 -0.0679159 -0.078073 -0.0627974 -0.0681149 -0.078073 -0.0845356 -0.0679159 -0.078073 -0.0811939 -0.0932546 -0.078073 -0.0845356 -0.0932546 -0.100832 -0.0681149 -0.0686414 -0.0845356 -0.0851489 -0.0686414 -0.0628959 -0.0851489 -0.0778672 -0.0845356 -0.0851489 -0.100832 -0.101398 -0.0851489 -0.0778672 -0.101398 -0.0925199 -0.0811939 -0.0932546 -0.0943037 -0.108064 -0.0932546 -0.100832 -0.108064 -0.116752 -0.0943037 -0.108064 -0.107248 -0.122786 -0.108064 -0.116752 -0.122786 -0.132349 -0.100832 -0.101398 -0.116752 -0.117128 -0.101398 -0.0925199 -0.117128 -0.106769 -0.116752 -0.117128 -0.132349 -0.13262 -0.117128 -0.106769 -0.13262 -0.120485 -0.0628959 -0.0497671 -0.0778672 -0.0615977 -0.0497671 -0.0294649 -0.0615977 -0.0362725 -0.0778672 -0.0615977 -0.0925199 -0.0728932 -0.0615977 -0.0362725 -0.0728932 -0.0425811 -0.0294649 -0.00315482 -0.0362725 -0.00367821 -0.00315482 0.026509 -0.00367821 0.033341 -0.0362725 -0.00367821 -0.0425811 -0.00359821 -0.00367821 0.033341 -0.00359821 0.0403959 -0.0925199 -0.0728932 -0.106769 -0.0838276 -0.0728932 -0.0425811 -0.0838276 -0.0487518 -0.106769 -0.0838276 -0.120485 -0.0943828 -0.0838276 -0.0487518 -0.0943828 -0.0543357 -0.0425811 -0.00359821 -0.0487518 -0.00351435 -0.00359821 0.0403959 -0.00351435 0.0473854 -0.0487518 -0.00351435 -0.0543357 -0.00323724 -0.00351435 0.0473854 -0.00323724 0.0544936 0 -0.00761785 0 -0.00860288 -0.00761785 -0.0160884 -0.00860288 -0.0181446 0 -0.00860288 0 -0.00957966 -0.00860288 -0.0181446 -0.00957966 -0.0202171 -0.0160884 -0.0261826 -0.0181446 -0.0295224 -0.0261826 -0.0384986 -0.0295224 -0.0433339 -0.0181446 -0.0295224 -0.0202171 -0.032827 -0.0295224 -0.0433339 -0.032827 -0.048177 0 -0.00957966 0 -0.0105828 -0.00957966 -0.0202171 -0.0105828 -0.0223098 0 -0.0105828 0 -0.0116097 -0.0105828 -0.0223098 -0.0116097 -0.0244433 -0.0202171 -0.032827 -0.0223098 -0.036201 -0.032827 -0.048177 -0.036201 -0.0530355 -0.0223098 -0.036201 -0.0244433 -0.03963 -0.036201 -0.0530355 -0.03963 -0.0579456 -0.0384986 -0.0533162 -0.0433339 -0.0599611 -0.0533162 -0.0704272 -0.0599611 -0.0790533 -0.0433339 -0.0599611 -0.048177 -0.0665074 -0.0599611 -0.0790533 -0.0665074 -0.087623 -0.0704272 -0.0889717 -0.0790533 -0.0997388 -0.0889717 -0.107248 -0.0997388 -0.119989 -0.0790533 -0.0997388 -0.087623 -0.110279 -0.0997388 -0.119989 -0.110279 -0.132525 -0.048177 -0.0665074 -0.0530355 -0.0731259 -0.0665074 -0.087623 -0.0731259 -0.0961338 -0.0530355 -0.0731259 -0.0579456 -0.0797743 -0.0731259 -0.0961338 -0.0797743 -0.104636 -0.087623 -0.110279 -0.0961338 -0.120803 -0.110279 -0.132525 -0.120803 -0.144809 -0.0961338 -0.120803 -0.104636 -0.13123 -0.120803 -0.144809 -0.13123 -0.156923 0 -0.0116097 0 -0.0126585 -0.0116097 -0.0244433 -0.0126585 -0.0266406 0 -0.0126585 0 -0.0137414 -0.0126585 -0.0266406 -0.0137414 -0.0288892 -0.0244433 -0.03963 -0.0266406 -0.043115 -0.03963 -0.0579456 -0.043115 -0.0629587 -0.0266406 -0.043115 -0.0288892 -0.0466868 -0.043115 -0.0629587 -0.0466868 -0.0680393 0 -0.0137414 0 -0.0148477 -0.0137414 -0.0288892 -0.0148477 -0.0311824 0 -0.0148477 0 -0.0159866 -0.0148477 -0.0311824 -0.0159866 -0.0335346 -0.0288892 -0.0466868 -0.0311824 -0.0503113 -0.0466868 -0.0680393 -0.0503113 -0.0731739 -0.0311824 -0.0503113 -0.0335346 -0.0540235 -0.0503113 -0.0731739 -0.0540235 -0.078401 -0.0579456 -0.0797743 -0.0629587 -0.0864736 -0.0797743 -0.104636 -0.0864736 -0.113216 -0.0629587 -0.0864736 -0.0680393 -0.0932531 -0.0864736 -0.113216 -0.0932531 -0.121789 -0.104636 -0.13123 -0.113216 -0.141619 -0.13123 -0.156923 -0.141619 -0.168978 -0.113216 -0.141619 -0.121789 -0.151961 -0.141619 -0.168978 -0.151961 -0.180809 -0.0680393 -0.0932531 -0.0731739 -0.100058 -0.0932531 -0.121789 -0.100058 -0.130349 -0.0731739 -0.100058 -0.078401 -0.106957 -0.100058 -0.130349 -0.106957 -0.138952 -0.121789 -0.151961 -0.130349 -0.162205 -0.151961 -0.180809 -0.162205 -0.192459 -0.130349 -0.162205 -0.138952 -0.172429 -0.162205 -0.192459 -0.172429 -0.20394 -0.107248 -0.122786 -0.119989 -0.137145 -0.122786 -0.132349 -0.137145 -0.147524 -0.119989 -0.137145 -0.132525 -0.151078 -0.137145 -0.147524 -0.151078 -0.162278 -0.132349 -0.13262 -0.147524 -0.147514 -0.13262 -0.120485 -0.147514 -0.1337 -0.147524 -0.147514 -0.162278 -0.161775 -0.147514 -0.1337 -0.161775 -0.146308 -0.132525 -0.151078 -0.144809 -0.16478 -0.151078 -0.162278 -0.16478 -0.176475 -0.144809 -0.16478 -0.156923 -0.17815 -0.16478 -0.176475 -0.17815 -0.190289 -0.162278 -0.161775 -0.176475 -0.175533 -0.161775 -0.146308 -0.175533 -0.158104 -0.176475 -0.175533 -0.190289 -0.188737 -0.175533 -0.158104 -0.188737 -0.169436 -0.120485 -0.0943828 -0.1337 -0.104337 -0.0943828 -0.0543357 -0.104337 -0.0596503 -0.1337 -0.104337 -0.146308 -0.113604 -0.104337 -0.0596503 -0.113604 -0.0643997 -0.0543357 -0.00323724 -0.0596503 -0.00262471 -0.00323724 0.0544936 -0.00262471 0.0614726 -0.0596503 -0.00262471 -0.0643997 -0.00162856 -0.00262471 0.0614726 -0.00162856 0.0686293 -0.146308 -0.113604 -0.158104 -0.122261 -0.113604 -0.0643997 -0.122261 -0.0684005 -0.158104 -0.122261 -0.169436 -0.130377 -0.122261 -0.0684005 -0.130377 -0.0721854 -0.0643997 -0.00162856 -0.0684005 -0.000319416 -0.00162856 0.0686293 -0.000319416 0.0759838 -0.0684005 -0.000319416 -0.0721854 0.00118926 -0.000319416 0.0759838 0.00118926 0.0830815 -0.156923 -0.17815 -0.168978 -0.191288 -0.17815 -0.190289 -0.191288 -0.203798 -0.168978 -0.191288 -0.180809 -0.204105 -0.191288 -0.203798 -0.204105 -0.216766 -0.190289 -0.188737 -0.203798 -0.201457 -0.188737 -0.169436 -0.201457 -0.180221 -0.203798 -0.201457 -0.216766 -0.213575 -0.201457 -0.180221 -0.213575 -0.190294 -0.180809 -0.204105 -0.192459 -0.216609 -0.204105 -0.216766 -0.216609 -0.229323 -0.192459 -0.216609 -0.20394 -0.228792 -0.216609 -0.229323 -0.228792 -0.241331 -0.216766 -0.213575 -0.229323 -0.225151 -0.213575 -0.190294 -0.225151 -0.199781 -0.229323 -0.225151 -0.241331 -0.236024 -0.225151 -0.199781 -0.236024 -0.208416 -0.169436 -0.130377 -0.180221 -0.1379 -0.130377 -0.0721854 -0.1379 -0.075458 -0.180221 -0.1379 -0.190294 -0.144843 -0.1379 -0.075458 -0.144843 -0.0783008 -0.0721854 0.00118926 -0.075458 0.00293485 0.00118926 0.0830815 0.00293485 0.0900837 -0.075458 0.00293485 -0.0783008 0.00477154 0.00293485 0.0900837 0.00477154 0.0968585 -0.190294 -0.144843 -0.199781 -0.151164 -0.144843 -0.0783008 -0.151164 -0.0806247 -0.199781 -0.151164 -0.208416 -0.156684 -0.151164 -0.0806247 -0.156684 -0.0822967 -0.0783008 0.00477154 -0.0806247 0.00693742 0.00477154 0.0968585 0.00693742 0.103612 -0.0806247 0.00693742 -0.0822967 0.00939777 0.00693742 0.103612 0.00939777 0.110267 0 0 0.00636164 0.0139438 0 0 0.0139438 0.0207906 0.00636164 0.0139438 0.0130775 0.028139 0.0139438 0.0207906 0.028139 0.04187 0 0 0.0207906 0.0264559 0 0 0.0264559 0.0306794 0.0207906 0.0264559 0.04187 0.0530715 0.0264559 0.0306794 0.0530715 0.061596 0.0130775 0.028139 0.0197179 0.0423793 0.028139 0.04187 0.0423793 0.062948 0.0197179 0.0423793 0.026509 0.0565399 0.0423793 0.062948 0.0565399 0.083753 0.04187 0.0530715 0.062948 0.0798736 0.0530715 0.061596 0.0798736 0.0925417 0.062948 0.0798736 0.083753 0.106214 0.0798736 0.0925417 0.106214 0.123169 0 0 0.0306794 0.033737 0 0 0.033737 0.0358874 0.0306794 0.033737 0.061596 0.0676329 0.033737 0.0358874 0.0676329 0.0719674 0 0 0.0358874 0.0373232 0 0 0.0373232 0.0377623 0.0358874 0.0373232 0.0719674 0.0747278 0.0373232 0.0377623 0.0747278 0.0755302 0.061596 0.0676329 0.0925417 0.101648 0.0676329 0.0719674 0.101648 0.107963 0.0925417 0.101648 0.123169 0.135334 0.101648 0.107963 0.135334 0.143853 0.0719674 0.0747278 0.107963 0.112153 0.0747278 0.0755302 0.112153 0.113164 0.107963 0.112153 0.143853 0.149182 0.112153 0.113164 0.149182 0.150532 0.026509 0.0565399 0.033341 0.0706329 0.0565399 0.083753 0.0706329 0.104686 0.033341 0.0706329 0.0403959 0.0848411 0.0706329 0.104686 0.0848411 0.125197 0.083753 0.106214 0.104686 0.132536 0.106214 0.123169 0.132536 0.153678 0.104686 0.132536 0.125197 0.158594 0.132536 0.153678 0.158594 0.183761 0.0403959 0.0848411 0.0473854 0.0989196 0.0848411 0.125197 0.0989196 0.145692 0.0473854 0.0989196 0.0544936 0.112514 0.0989196 0.145692 0.112514 0.165559 0.125197 0.158594 0.145692 0.184331 0.158594 0.183761 0.184331 0.213491 0.145692 0.184331 0.165559 0.209182 0.184331 0.213491 0.209182 0.242492 0.123169 0.135334 0.153678 0.168602 0.135334 0.143853 0.168602 0.179143 0.153678 0.168602 0.183761 0.201898 0.168602 0.179143 0.201898 0.214147 0.143853 0.149182 0.179143 0.185692 0.149182 0.150532 0.185692 0.187233 0.179143 0.185692 0.214147 0.221739 0.185692 0.187233 0.221739 0.222841 0.183761 0.201898 0.213491 0.234208 0.201898 0.214147 0.234208 0.248397 0.213491 0.234208 0.242492 0.265954 0.234208 0.248397 0.265954 0.281894 0.214147 0.221739 0.248397 0.256707 0.221739 0.222841 0.256707 0.257952 0.248397 0.256707 0.281894 0.290818 0.256707 0.257952 0.290818 0.291436 0 0 0.0377623 0.0364897 0 0 0.0364897 0.0328637 0.0377623 0.0364897 0.0755302 0.0729836 0.0364897 0.0328637 0.0729836 0.0655901 0 0 0.0328637 0.0264017 0 0 0.0264017 0.0177973 0.0328637 0.0264017 0.0655901 0.0527549 0.0264017 0.0177973 0.0527549 0.0353141 0.0755302 0.0729836 0.113164 0.109311 0.0729836 0.0655901 0.109311 0.0981904 0.113164 0.109311 0.150532 0.145211 0.109311 0.0981904 0.145211 0.1308 0.0655901 0.0527549 0.0981904 0.0791751 0.0527549 0.0353141 0.0791751 0.0535225 0.0981904 0.0791751 0.1308 0.105629 0.0791751 0.0535225 0.105629 0.0720821 0 0 0.0177973 0.00800738 0 0 0.00800738 -0.00103399 0.0177973 0.00800738 0.0353141 0.0162113 0.00800738 -0.00103399 0.0162113 -0.001825 0 0 -0.00103399 -0.00847844 0 0 -0.00847844 -0.0138587 -0.00103399 -0.00847844 -0.001825 -0.0162531 -0.00847844 -0.0138587 -0.0162531 -0.0274444 0.0353141 0.0162113 0.0535225 0.024988 0.0162113 -0.001825 0.024988 -0.0018034 0.0535225 0.024988 0.0720821 0.0345528 0.024988 -0.0018034 0.0345528 -0.00057271 -0.001825 -0.0162531 -0.0018034 -0.0237434 -0.0162531 -0.0274444 -0.0237434 -0.0400983 -0.0018034 -0.0237434 -0.00057271 -0.0296754 -0.0237434 -0.0400983 -0.0296754 -0.0521641 0.150532 0.145211 0.187233 0.180595 0.145211 0.1308 0.180595 0.162478 0.187233 0.180595 0.222841 0.214734 0.180595 0.162478 0.214734 0.193247 0.1308 0.105629 0.162478 0.131797 0.105629 0.0720821 0.131797 0.0905501 0.162478 0.131797 0.193247 0.157271 0.131797 0.0905501 0.157271 0.109159 0.222841 0.214734 0.257952 0.247918 0.214734 0.193247 0.247918 0.223247 0.257952 0.247918 0.291436 0.279845 0.247918 0.223247 0.279845 0.251836 0.193247 0.157271 0.223247 0.181836 0.157271 0.109159 0.181836 0.127517 0.223247 0.181836 0.251836 0.206233 0.181836 0.127517 0.206233 0.145818 0.0720821 0.0345528 0.0905501 0.0450331 0.0345528 -0.00057271 0.0450331 0.001482 0.0905501 0.0450331 0.109159 0.0555738 0.0450331 0.001482 0.0555738 0.00465844 -0.00057271 -0.0296754 0.001482 -0.0344703 -0.0296754 -0.0521641 -0.0344703 -0.0630641 0.001482 -0.0344703 0.00465844 -0.0386116 -0.0344703 -0.0630641 -0.0386116 -0.0728997 0.109159 0.0555738 0.127517 0.066836 0.0555738 0.00465844 0.066836 0.00877341 0.127517 0.066836 0.145818 0.0789334 0.066836 0.00877341 0.0789334 0.0138063 0.00465844 -0.0386116 0.00877341 -0.0411858 -0.0386116 -0.0728997 -0.0411858 -0.082292 0.00877341 -0.0411858 0.0138063 -0.0426726 -0.0411858 -0.082292 -0.0426726 -0.0903112 0.0544936 0.112514 0.0614726 0.126138 0.112514 0.165559 0.126138 0.184931 0.0614726 0.126138 0.0686293 0.139531 0.126138 0.184931 0.139531 0.204 0.165559 0.209182 0.184931 0.2337 0.209182 0.242492 0.2337 0.270545 0.184931 0.2337 0.204 0.257472 0.2337 0.270545 0.257472 0.298055 0.0686293 0.139531 0.0759838 0.152566 0.139531 0.204 0.152566 0.222488 0.0759838 0.152566 0.0830815 0.165372 0.152566 0.222488 0.165372 0.240305 0.204 0.257472 0.222488 0.28036 0.257472 0.298055 0.28036 0.324589 0.222488 0.28036 0.240305 0.302585 0.28036 0.324589 0.302585 0.349973 0.242492 0.265954 0.270545 0.296867 0.265954 0.281894 0.296867 0.314138 0.270545 0.296867 0.298055 0.326716 0.296867 0.314138 0.326716 0.34555 0.281894 0.290818 0.314138 0.323807 0.290818 0.291436 0.323807 0.323653 0.314138 0.323807 0.34555 0.355285 0.323807 0.323653 0.355285 0.354558 0.298055 0.326716 0.324589 0.355708 0.326716 0.34555 0.355708 0.375876 0.324589 0.355708 0.349973 0.383412 0.355708 0.375876 0.383412 0.404653 0.34555 0.355285 0.375876 0.385747 0.355285 0.354558 0.385747 0.383775 0.375876 0.385747 0.404653 0.414683 0.385747 0.383775 0.414683 0.411662 0.0830815 0.165372 0.0900837 0.177484 0.165372 0.240305 0.177484 0.257093 0.0900837 0.177484 0.0968585 0.189052 0.177484 0.257093 0.189052 0.273008 0.240305 0.302585 0.257093 0.32335 0.302585 0.349973 0.32335 0.374034 0.257093 0.32335 0.273008 0.34298 0.32335 0.374034 0.34298 0.396525 0.0968585 0.189052 0.103612 0.200135 0.189052 0.273008 0.200135 0.288012 0.103612 0.200135 0.110267 0.210714 0.200135 0.288012 0.210714 0.302155 0.273008 0.34298 0.288012 0.361319 0.34298 0.396525 0.361319 0.417685 0.288012 0.361319 0.302155 0.378569 0.361319 0.417685 0.378569 0.437442 0.349973 0.383412 0.374034 0.409724 0.383412 0.404653 0.409724 0.432152 0.374034 0.409724 0.396525 0.434253 0.409724 0.432152 0.434253 0.457673 0.404653 0.414683 0.432152 0.44194 0.414683 0.411662 0.44194 0.437553 0.432152 0.44194 0.457673 0.467457 0.44194 0.437553 0.467457 0.461855 0.396525 0.434253 0.417685 0.457356 0.434253 0.457673 0.457356 0.481804 0.417685 0.457356 0.437442 0.478993 0.457356 0.481804 0.478993 0.504291 0.457673 0.467457 0.481804 0.491231 0.467457 0.461855 0.491231 0.484267 0.481804 0.491231 0.504291 0.513629 0.491231 0.484267 0.513629 0.505269 0.291436 0.279845 0.323653 0.310278 0.279845 0.251836 0.310278 0.279103 0.323653 0.310278 0.354558 0.338982 0.310278 0.279103 0.338982 0.304978 0.251836 0.206233 0.279103 0.22917 0.206233 0.145818 0.22917 0.163927 0.279103 0.22917 0.304978 0.251018 0.22917 0.163927 0.251018 0.181375 0.354558 0.338982 0.383775 0.366205 0.338982 0.304978 0.366205 0.329155 0.383775 0.366205 0.411662 0.391921 0.366205 0.329155 0.391921 0.351986 0.304978 0.251018 0.329155 0.271979 0.251018 0.181375 0.271979 0.198327 0.329155 0.271979 0.351986 0.291494 0.271979 0.198327 0.291494 0.214777 0.145818 0.0789334 0.163927 0.0912077 0.0789334 0.0138063 0.0912077 0.0203494 0.163927 0.0912077 0.181375 0.103726 0.0912077 0.0203494 0.103726 0.0271549 0.0138063 -0.0426726 0.0203494 -0.0430646 -0.0426726 -0.0903112 -0.0430646 -0.0974322 0.0203494 -0.0430646 0.0271549 -0.0422831 -0.0430646 -0.0974322 -0.0422831 -0.103714 0.181375 0.103726 0.198327 0.116413 0.103726 0.0271549 0.116413 0.0347438 0.198327 0.116413 0.214777 0.129287 0.116413 0.0347438 0.129287 0.043102 0.0271549 -0.0422831 0.0347438 -0.0409168 -0.0422831 -0.103714 -0.0409168 -0.109344 0.0347438 -0.0409168 0.043102 -0.0385744 -0.0409168 -0.109344 -0.0385744 -0.114264 0.411662 0.391921 0.437553 0.415649 0.391921 0.351986 0.415649 0.373189 0.437553 0.415649 0.461855 0.437747 0.415649 0.373189 0.437747 0.392642 0.351986 0.291494 0.373189 0.310167 0.291494 0.214777 0.310167 0.230586 0.373189 0.310167 0.392642 0.327103 0.310167 0.230586 0.327103 0.245683 0.461855 0.437747 0.484267 0.458005 0.437747 0.392642 0.458005 0.410688 0.484267 0.458005 0.505269 0.476969 0.458005 0.410688 0.476969 0.42724 0.392642 0.327103 0.410688 0.343207 0.327103 0.245683 0.343207 0.259938 0.410688 0.343207 0.42724 0.357859 0.343207 0.259938 0.357859 0.273215 0.214777 0.129287 0.230586 0.142038 0.129287 0.043102 0.142038 0.0518387 0.230586 0.142038 0.245683 0.154915 0.142038 0.0518387 0.154915 0.0614485 0.043102 -0.0385744 0.0518387 -0.0351471 -0.0385744 -0.114264 -0.0351471 -0.117591 0.0518387 -0.0351471 0.0614485 -0.0309251 -0.0351471 -0.117591 -0.0309251 -0.120173 0.245683 0.154915 0.259938 0.167326 0.154915 0.0614485 0.167326 0.0707489 0.259938 0.167326 0.273215 0.178999 0.167326 0.0707489 0.178999 0.079977 0.0614485 -0.0309251 0.0707489 -0.0261308 -0.0309251 -0.120173 -0.0261308 -0.121775 0.0707489 -0.0261308 0.079977 -0.0214946 -0.0261308 -0.121775 -0.0214946 -0.122991 0 -0.0159866 0 -0.0171313 -0.0159866 -0.0335346 -0.0171313 -0.0358975 0 -0.0171313 0 -0.0183098 -0.0171313 -0.0358975 -