# vtk DataFile Version 3.0
#This file was generated by the deal.II library on 2021/4/23 at 0:45:41
ASCII
DATASET UNSTRUCTURED_GRID

FIELD FieldData 2
CYCLE 1 1 int
73
TIME 1 1 double
0.146
POINTS 4728 double
-1 -1 0
-0.75 -1 0
-1 -0.75 0
-0.75 -0.75 0
-0.75 -1 0
-0.5 -1 0
-0.75 -0.75 0
-0.5 -0.75 0
-1 -0.75 0
-0.75 -0.75 0
-1 -0.5 0
-0.75 -0.5 0
-0.75 -0.75 0
-0.5 -0.75 0
-0.75 -0.5 0
-0.5 -0.5 0
-0.5 -1 0
-0.25 -1 0
-0.5 -0.75 0
-0.25 -0.75 0
-0.25 -1 0
0 -1 0
-0.25 -0.75 0
0 -0.75 0
-0.5 -0.75 0
-0.25 -0.75 0
-0.5 -0.5 0
-0.25 -0.5 0
-0.25 -0.75 0
0 -0.75 0
-0.25 -0.5 0
0 -0.5 0
-1 -0.5 0
-0.75 -0.5 0
-1 -0.25 0
-0.75 -0.25 0
-0.75 -0.5 0
-0.5 -0.5 0
-0.75 -0.25 0
-0.5 -0.25 0
-1 -0.25 0
-0.75 -0.25 0
-1 0 0
-0.75 0 0
-0.5 -0.5 0
-0.25 -0.5 0
-0.5 -0.25 0
-0.25 -0.25 0
-0.25 -0.5 0
0 -0.5 0
-0.25 -0.25 0
0 -0.25 0
0 -1 0
0.25 -1 0
0 -0.75 0
0.25 -0.75 0
0.25 -1 0
0.5 -1 0
0.25 -0.75 0
0.5 -0.75 0
0.25 -0.75 0
0.5 -0.75 0
0.25 -0.5 0
0.5 -0.5 0
0.5 -1 0
0.75 -1 0
0.5 -0.75 0
0.75 -0.75 0
0.75 -1 0
1 -1 0
0.75 -0.75 0
1 -0.75 0
0.5 -0.75 0
0.75 -0.75 0
0.5 -0.5 0
0.75 -0.5 0
0.75 -0.75 0
1 -0.75 0
0.75 -0.5 0
1 -0.5 0
0.25 -0.5 0
0.5 -0.5 0
0.25 -0.25 0
0.5 -0.25 0
0 -0.25 0
0.25 -0.25 0
0 0 0
0.25 0 0
0.25 -0.25 0
0.5 -0.25 0
0.25 0 0
0.5 0 0
0.5 -0.5 0
0.75 -0.5 0
0.5 -0.25 0
0.75 -0.25 0
0.75 -0.5 0
1 -0.5 0
0.75 -0.25 0
1 -0.25 0
0.5 -0.25 0
0.75 -0.25 0
0.5 0 0
0.75 0 0
0.75 -0.25 0
1 -0.25 0
0.75 0 0
1 0 0
-0.75 -0.25 0
-0.625 -0.25 0
-0.75 -0.125 0
-0.625 -0.125 0
-0.625 -0.25 0
-0.5 -0.25 0
-0.625 -0.125 0
-0.5 -0.125 0
-0.75 -0.125 0
-0.625 -0.125 0
-0.75 0 0
-0.625 0 0
-0.625 -0.125 0
-0.5 -0.125 0
-0.625 0 0
-0.5 0 0
-0.5 -0.25 0
-0.375 -0.25 0
-0.5 -0.125 0
-0.375 -0.125 0
-0.375 -0.25 0
-0.25 -0.25 0
-0.375 -0.125 0
-0.25 -0.125 0
-0.5 -0.125 0
-0.375 -0.125 0
-0.5 0 0
-0.375 0 0
-0.375 -0.125 0
-0.25 -0.125 0
-0.375 0 0
-0.25 0 0
0 -0.75 0
0.125 -0.75 0
0 -0.625 0
0.125 -0.625 0
0.125 -0.75 0
0.25 -0.75 0
0.125 -0.625 0
0.25 -0.625 0
0 -0.625 0
0.125 -0.625 0
0 -0.5 0
0.125 -0.5 0
0.125 -0.625 0
0.25 -0.625 0
0.125 -0.5 0
0.25 -0.5 0
0 -0.5 0
0.125 -0.5 0
0 -0.375 0
0.125 -0.375 0
0.125 -0.5 0
0.25 -0.5 0
0.125 -0.375 0
0.25 -0.375 0
0 -0.375 0
0.125 -0.375 0
0 -0.25 0
0.125 -0.25 0
0.125 -0.375 0
0.25 -0.375 0
0.125 -0.25 0
0.25 -0.25 0
-1 0 0
-0.875 0 0
-1 0.125 0
-0.875 0.125 0
-0.875 0 0
-0.75 0 0
-0.875 0.125 0
-0.75 0.125 0
-1 0.125 0
-0.875 0.125 0
-1 0.25 0
-0.875 0.25 0
-0.875 0.125 0
-0.75 0.125 0
-0.875 0.25 0
-0.75 0.25 0
-0.25 -0.25 0
-0.125 -0.25 0
-0.25 -0.125 0
-0.125 -0.125 0
-0.125 -0.25 0
0 -0.25 0
-0.125 -0.125 0
0 -0.125 0
-0.25 -0.125 0
-0.125 -0.125 0
-0.25 0 0
-0.125 0 0
-0.125 -0.125 0
0 -0.125 0
-0.125 0 0
0 0 0
-0.75 0 0
-0.625 0 0
-0.75 0.125 0
-0.625 0.125 0
-1 0.25 0
-0.875 0.25 0
-1 0.375 0
-0.875 0.375 0
-1 0.875 0
-0.875 0.875 0
-1 1 0
-0.875 1 0
-0.625 0.25 0
-0.5625 0.25 0
-0.625 0.3125 0
-0.5625 0.3125 0
-0.625 0.3125 0
-0.5625 0.3125 0
-0.625 0.375 0
-0.5625 0.375 0
-0.75 0.375 0
-0.6875 0.375 0
-0.75 0.4375 0
-0.6875 0.4375 0
-0.6875 0.375 0
-0.625 0.375 0
-0.6875 0.4375 0
-0.625 0.4375 0
-0.625 0.375 0
-0.5625 0.375 0
-0.625 0.4375 0
-0.5625 0.4375 0
-0.1875 0.125 0
-0.125 0.125 0
-0.1875 0.1875 0
-0.125 0.1875 0
-0.875 0.75 0
-0.8125 0.75 0
-0.875 0.8125 0
-0.8125 0.8125 0
-0.875 0.8125 0
-0.8125 0.8125 0
-0.875 0.875 0
-0.8125 0.875 0
-0.5 0.125 0
-0.4375 0.125 0
-0.5 0.1875 0
-0.4375 0.1875 0
-0.4375 0.125 0
-0.375 0.125 0
-0.4375 0.1875 0
-0.375 0.1875 0
-0.0625 0.25 0
0 0.25 0
-0.0625 0.3125 0
0 0.3125 0
-0.0625 0.3125 0
0 0.3125 0
-0.0625 0.375 0
0 0.375 0
-0.875 0.5 0
-0.8125 0.5 0
-0.875 0.5625 0
-0.8125 0.5625 0
-0.875 0.5625 0
-0.8125 0.5625 0
-0.875 0.625 0
-0.8125 0.625 0
-0.875 0.625 0
-0.8125 0.625 0
-0.875 0.6875 0
-0.8125 0.6875 0
-0.875 0.6875 0
-0.8125 0.6875 0
-0.875 0.75 0
-0.8125 0.75 0
-0.75 0.9375 0
-0.6875 0.9375 0
-0.75 1 0
-0.6875 1 0
-0.6875 0.9375 0
-0.625 0.9375 0
-0.6875 1 0
-0.625 1 0
-0.625 0 0
-0.5625 0 0
-0.625 0.0625 0
-0.5625 0.0625 0
-0.5625 0 0
-0.5 0 0
-0.5625 0.0625 0
-0.5 0.0625 0
-0.625 0.0625 0
-0.5625 0.0625 0
-0.625 0.125 0
-0.5625 0.125 0
-0.5625 0.0625 0
-0.5 0.0625 0
-0.5625 0.125 0
-0.5 0.125 0
-0.75 0.125 0
-0.6875 0.125 0
-0.75 0.1875 0
-0.6875 0.1875 0
-0.6875 0.125 0
-0.625 0.125 0
-0.6875 0.1875 0
-0.625 0.1875 0
-0.75 0.1875 0
-0.6875 0.1875 0
-0.75 0.25 0
-0.6875 0.25 0
-0.6875 0.1875 0
-0.625 0.1875 0
-0.6875 0.25 0
-0.625 0.25 0
-0.625 0.125 0
-0.5625 0.125 0
-0.625 0.1875 0
-0.5625 0.1875 0
-0.5625 0.125 0
-0.5 0.125 0
-0.5625 0.1875 0
-0.5 0.1875 0
-0.625 0.1875 0
-0.5625 0.1875 0
-0.625 0.25 0
-0.5625 0.25 0
-0.5625 0.1875 0
-0.5 0.1875 0
-0.5625 0.25 0
-0.5 0.25 0
-0.875 0.25 0
-0.8125 0.25 0
-0.875 0.3125 0
-0.8125 0.3125 0
-0.8125 0.25 0
-0.75 0.25 0
-0.8125 0.3125 0
-0.75 0.3125 0
-0.875 0.3125 0
-0.8125 0.3125 0
-0.875 0.375 0
-0.8125 0.375 0
-0.8125 0.3125 0
-0.75 0.3125 0
-0.8125 0.375 0
-0.75 0.375 0
-1 0.375 0
-0.9375 0.375 0
-1 0.4375 0
-0.9375 0.4375 0
-0.9375 0.375 0
-0.875 0.375 0
-0.9375 0.4375 0
-0.875 0.4375 0
-1 0.4375 0
-0.9375 0.4375 0
-1 0.5 0
-0.9375 0.5 0
-0.9375 0.4375 0
-0.875 0.4375 0
-0.9375 0.5 0
-0.875 0.5 0
-0.875 0.375 0
-0.8125 0.375 0
-0.875 0.4375 0
-0.8125 0.4375 0
-0.8125 0.375 0
-0.75 0.375 0
-0.8125 0.4375 0
-0.75 0.4375 0
-0.875 0.4375 0
-0.8125 0.4375 0
-0.875 0.5 0
-0.8125 0.5 0
-0.8125 0.4375 0
-0.75 0.4375 0
-0.8125 0.5 0
-0.75 0.5 0
-0.75 0.25 0
-0.6875 0.25 0
-0.75 0.3125 0
-0.6875 0.3125 0
-0.6875 0.25 0
-0.625 0.25 0
-0.6875 0.3125 0
-0.625 0.3125 0
-0.75 0.3125 0
-0.6875 0.3125 0
-0.75 0.375 0
-0.6875 0.375 0
-0.6875 0.3125 0
-0.625 0.3125 0
-0.6875 0.375 0
-0.625 0.375 0
-0.25 0 0
-0.1875 0 0
-0.25 0.0625 0
-0.1875 0.0625 0
-0.1875 0 0
-0.125 0 0
-0.1875 0.0625 0
-0.125 0.0625 0
-0.25 0.0625 0
-0.1875 0.0625 0
-0.25 0.125 0
-0.1875 0.125 0
-0.1875 0.0625 0
-0.125 0.0625 0
-0.1875 0.125 0
-0.125 0.125 0
-0.125 0 0
-0.0625 0 0
-0.125 0.0625 0
-0.0625 0.0625 0
-0.0625 0 0
0 0 0
-0.0625 0.0625 0
0 0.0625 0
-0.125 0.0625 0
-0.0625 0.0625 0
-0.125 0.125 0
-0.0625 0.125 0
-0.0625 0.0625 0
0 0.0625 0
-0.0625 0.125 0
0 0.125 0
-0.125 0.125 0
-0.0625 0.125 0
-0.125 0.1875 0
-0.0625 0.1875 0
-0.0625 0.125 0
0 0.125 0
-0.0625 0.1875 0
0 0.1875 0
-0.125 0.1875 0
-0.0625 0.1875 0
-0.125 0.25 0
-0.0625 0.25 0
-0.0625 0.1875 0
0 0.1875 0
-0.0625 0.25 0
0 0.25 0
-1 0.75 0
-0.9375 0.75 0
-1 0.8125 0
-0.9375 0.8125 0
-0.9375 0.75 0
-0.875 0.75 0
-0.9375 0.8125 0
-0.875 0.8125 0
-1 0.8125 0
-0.9375 0.8125 0
-1 0.875 0
-0.9375 0.875 0
-0.9375 0.8125 0
-0.875 0.8125 0
-0.9375 0.875 0
-0.875 0.875 0
-0.875 0.875 0
-0.8125 0.875 0
-0.875 0.9375 0
-0.8125 0.9375 0
-0.8125 0.875 0
-0.75 0.875 0
-0.8125 0.9375 0
-0.75 0.9375 0
-0.875 0.9375 0
-0.8125 0.9375 0
-0.875 1 0
-0.8125 1 0
-0.8125 0.9375 0
-0.75 0.9375 0
-0.8125 1 0
-0.75 1 0
-0.5 0 0
-0.4375 0 0
-0.5 0.0625 0
-0.4375 0.0625 0
-0.4375 0 0
-0.375 0 0
-0.4375 0.0625 0
-0.375 0.0625 0
-0.5 0.0625 0
-0.4375 0.0625 0
-0.5 0.125 0
-0.4375 0.125 0
-0.4375 0.0625 0
-0.375 0.0625 0
-0.4375 0.125 0
-0.375 0.125 0
-0.4375 0.3125 0
-0.375 0.3125 0
-0.4375 0.375 0
-0.375 0.375 0
-0.375 0 0
-0.3125 0 0
-0.375 0.0625 0
-0.3125 0.0625 0
-0.3125 0 0
-0.25 0 0
-0.3125 0.0625 0
-0.25 0.0625 0
-0.375 0.0625 0
-0.3125 0.0625 0
-0.375 0.125 0
-0.3125 0.125 0
-0.3125 0.0625 0
-0.25 0.0625 0
-0.3125 0.125 0
-0.25 0.125 0
-0.5 0.375 0
-0.4375 0.375 0
-0.5 0.4375 0
-0.4375 0.4375 0
-0.5 0.4375 0
-0.4375 0.4375 0
-0.5 0.5 0
-0.4375 0.5 0
-0.6875 0.5625 0
-0.625 0.5625 0
-0.6875 0.625 0
-0.625 0.625 0
-0.625 0.5 0
-0.5625 0.5 0
-0.625 0.5625 0
-0.5625 0.5625 0
-0.5625 0.5 0
-0.5 0.5 0
-0.5625 0.5625 0
-0.5 0.5625 0
-1 0.5 0
-0.9375 0.5 0
-1 0.5625 0
-0.9375 0.5625 0
-0.9375 0.5 0
-0.875 0.5 0
-0.9375 0.5625 0
-0.875 0.5625 0
-1 0.5625 0
-0.9375 0.5625 0
-1 0.625 0
-0.9375 0.625 0
-0.9375 0.5625 0
-0.875 0.5625 0
-0.9375 0.625 0
-0.875 0.625 0
-1 0.625 0
-0.9375 0.625 0
-1 0.6875 0
-0.9375 0.6875 0
-0.9375 0.625 0
-0.875 0.625 0
-0.9375 0.6875 0
-0.875 0.6875 0
-1 0.6875 0
-0.9375 0.6875 0
-1 0.75 0
-0.9375 0.75 0
-0.9375 0.6875 0
-0.875 0.6875 0
-0.9375 0.75 0
-0.875 0.75 0
-0.25 0.3125 0
-0.21875 0.3125 0
-0.25 0.34375 0
-0.21875 0.34375 0
-0.21875 0.3125 0
-0.1875 0.3125 0
-0.21875 0.34375 0
-0.1875 0.34375 0
-0.25 0.34375 0
-0.21875 0.34375 0
-0.25 0.375 0
-0.21875 0.375 0
-0.21875 0.34375 0
-0.1875 0.34375 0
-0.21875 0.375 0
-0.1875 0.375 0
-0.1875 0.3125 0
-0.15625 0.3125 0
-0.1875 0.34375 0
-0.15625 0.34375 0
-0.15625 0.3125 0
-0.125 0.3125 0
-0.15625 0.34375 0
-0.125 0.34375 0
-0.1875 0.34375 0
-0.15625 0.34375 0
-0.1875 0.375 0
-0.15625 0.375 0
-0.15625 0.34375 0
-0.125 0.34375 0
-0.15625 0.375 0
-0.125 0.375 0
-0.1875 0.375 0
-0.15625 0.375 0
-0.1875 0.40625 0
-0.15625 0.40625 0
-0.15625 0.40625 0
-0.125 0.40625 0
-0.15625 0.4375 0
-0.125 0.4375 0
-0.09375 0.53125 0
-0.0625 0.53125 0
-0.09375 0.5625 0
-0.0625 0.5625 0
-0.09375 0.5625 0
-0.0625 0.5625 0
-0.09375 0.59375 0
-0.0625 0.59375 0
-0.0625 0.5625 0
-0.03125 0.5625 0
-0.0625 0.59375 0
-0.03125 0.59375 0
-0.03125 0.5625 0
0 0.5625 0
-0.03125 0.59375 0
0 0.59375 0
-0.0625 0.59375 0
-0.03125 0.59375 0
-0.0625 0.625 0
-0.03125 0.625 0
-0.03125 0.59375 0
0 0.59375 0
-0.03125 0.625 0
0 0.625 0
-0.1875 0.4375 0
-0.15625 0.4375 0
-0.1875 0.46875 0
-0.15625 0.46875 0
-0.15625 0.4375 0
-0.125 0.4375 0
-0.15625 0.46875 0
-0.125 0.46875 0
-0.09375 0.625 0
-0.0625 0.625 0
-0.09375 0.65625 0
-0.0625 0.65625 0
-0.125 0.65625 0
-0.09375 0.65625 0
-0.125 0.6875 0
-0.09375 0.6875 0
-0.09375 0.65625 0
-0.0625 0.65625 0
-0.09375 0.6875 0
-0.0625 0.6875 0
-0.0625 0.625 0
-0.03125 0.625 0
-0.0625 0.65625 0
-0.03125 0.65625 0
-0.03125 0.625 0
0 0.625 0
-0.03125 0.65625 0
0 0.65625 0
-0.0625 0.65625 0
-0.03125 0.65625 0
-0.0625 0.6875 0
-0.03125 0.6875 0
-0.03125 0.65625 0
0 0.65625 0
-0.03125 0.6875 0
0 0.6875 0
-0.125 0.6875 0
-0.09375 0.6875 0
-0.125 0.71875 0
-0.09375 0.71875 0
-0.09375 0.6875 0
-0.0625 0.6875 0
-0.09375 0.71875 0
-0.0625 0.71875 0
-0.125 0.71875 0
-0.09375 0.71875 0
-0.125 0.75 0
[...]
POINT_DATA 4728
SCALARS U double 1
LOOKUP_TABLE default
0 0 0 2.55395e-05 0 0 2.55395e-05 9.45614e-05 0 2.55395e-05 0 3.79032e-05 2.55395e-05 9.45614e-05 3.79032e-05 0.000136499 0 0 9.45614e-05 0.000257388 0 0 0.000257388 0.000535646 9.45614e-05 0.000257388 0.000136499 0.000377171 0.000257388 0.000535646 0.000377171 0.000791574 0 3.79032e-05 0 3.47729e-05 3.79032e-05 0.000136499 3.47729e-05 0.000144599 0 3.47729e-05 0 0.00015222 0.000136499 0.000377171 0.000144599 0.000323712 0.000377171 0.000791574 0.000323712 0.00060586 0 0 0.000535646 0.000853436 0 0 0.000853436 0.000969283 0.000853436 0.000969283 0.00125534 0.00140682 0 0 0.000969283 0.000666501 0 0 0.000666501 0 0.000969283 0.000666501 0.00140682 0.000964749 0.000666501 0 0.000964749 0 0.00125534 0.00140682 0.000911943 0.00102895 0.00060586 0.000911943 0 0 0.000911943 0.00102895 0 0 0.00140682 0.000964749 0.00102895 0.00070484 0.000964749 0 0.00070484 0 0.00102895 0.00070484 0 0 0.00070484 0 0 0 3.47729e-05 8.9686e-05 9.34964e-05 0.000129624 8.9686e-05 0.000144599 0.000129624 0.000200662 9.34964e-05 0.000129624 0.00015222 0.000277146 0.000129624 0.000200662 0.000277146 0.000414435 0.000144599 0.000234155 0.000200662 0.000271057 0.000234155 0.000323712 0.000271057 0.000325703 0.000200662 0.000271057 0.000414435 0.000501244 0.000271057 0.000325703 0.000501244 0.000497558 0.000535646 0.000694541 0.00066361 0.000910864 0.000694541 0.000853436 0.000910864 0.00105439 0.00066361 0.000910864 0.000791574 0.00098968 0.000910864 0.00105439 0.00098968 0.00125534 0.000791574 0.00098968 0.000698717 0.00094828 0.00098968 0.00125534 0.00094828 0.00108364 0.000698717 0.00094828 0.00060586 0.000758901 0.00094828 0.00108364 0.000758901 0.000911943 0 7.61099e-05 0 0.00017301 7.61099e-05 0.00015222 0.00017301 0.000387816 0 0.00017301 0 0.000341991 0.00017301 0.000387816 0.000341991 0.000828019 0.000323712 0.000464786 0.000325703 0.000337311 0.000464786 0.00060586 0.000337311 0.00030293 0.000325703 0.000337311 0.000497558 0.000356905 0.000337311 0.00030293 0.000356905 0 0.00015222 0.000277146 0.000387816 0.000681332 0 0.000341991 0 0.000594136 0 0.000590704 0 0 0.00156725 0.00198816 0.00223519 0.00289011 0.00223519 0.00289011 0.00309599 0.0040558 0.00154337 0.00222629 0.00195518 0.00287467 0.00222629 0.00309599 0.00287467 0.00404995 0.00309599 0.0040558 0.00404995 0.00541524 0.000964494 0.000705429 0.00153567 0.00109902 0.00097014 0.00172552 0.000825384 0.00146461 0.000825384 0.00146461 0.000590704 0.00104039 0.0010161 0.0011361 0.0015635 0.00179992 0.0011361 0.00120871 0.00179992 0.00191476 0.000931642 0 0.00141842 0 0.00141842 0 0.0021398 0 0.000879434 0.0014905 0.000983739 0.00171565 0.000983739 0.00171565 0.0010436 0.00183357 0.0010436 0.00183357 0.00105013 0.00184618 0.00105013 0.00184618 0.00097014 0.00172552 0.000913336 0.00141018 0 0 0.00141018 0.00213597 0 0 0.000277146 0.000345791 0.000479239 0.000543214 0.000345791 0.000414435 0.000543214 0.000635866 0.000479239 0.000543214 0.000681332 0.000862286 0.000543214 0.000635866 0.000862286 0.0010161 0.000387816 0.000534574 0.000607918 0.000801224 0.000534574 0.000681332 0.000801224 0.00105115 0.000607918 0.000801224 0.000828019 0.0011767 0.000801224 0.00105115 0.0011767 0.00156725 0.000681332 0.000862286 0.00105115 0.00131578 0.000862286 0.0010161 0.00131578 0.0015635 0.00105115 0.00131578 0.00156725 0.00198816 0.00131578 0.0015635 0.00198816 0.00241605 0.000341991 0.000585005 0.000468063 0.000767341 0.000585005 0.000828019 0.000767341 0.00116284 0.000468063 0.000767341 0.000594136 0.00100309 0.000767341 0.00116284 0.00100309 0.00154337 0 0.000297068 0 0.000339731 0.000297068 0.000594136 0.000339731 0.000745185 0 0.000339731 0 0.000398105 0.000339731 0.000745185 0.000398105 0.000879434 0.000594136 0.00100309 0.000745185 0.00125441 0.00100309 0.00154337 0.00125441 0.00195518 0.000745185 0.00125441 0.000879434 0.0014905 0.00125441 0.00195518 0.0014905 0.0023753 0.000828019 0.0011767 0.00116284 0.00164756 0.0011767 0.00156725 0.00164756 0.00223519 0.00116284 0.00164756 0.00154337 0.00222629 0.00164756 0.00223519 0.00222629 0.00309599 0.000497558 0.000427231 0.000720147 0.000623206 0.000427231 0.000356905 0.000623206 0.000452173 0.000720147 0.000623206 0.00114968 0.000964494 0.000623206 0.000452173 0.000964494 0.000705429 0.000356905 0.000178452 0.000452173 0.000243889 0.000178452 0 0.000243889 0 0.000452173 0.000243889 0.000705429 0.000371917 0.000243889 0 0.000371917 0 0.000705429 0.000371917 0.00109902 0.000583456 0.000371917 0 0.000583456 0 0.00109902 0.000583456 0.00176553 0.000931642 0.000583456 0 0.000931642 0 0 0.000438664 0 0.000369321 0.000438664 0.00097014 0.000369321 0.000825384 0 0.000369321 0 0.000295352 0.000369321 0.000825384 0.000295352 0.000590704 0.000590704 0.00104039 0.000295352 0.000550684 0.00104039 0.0017323 0.000550684 0.000913336 0.000295352 0.000550684 0 0 0.000550684 0.000913336 0 0 0.000414435 0.00045784 0.000635866 0.000716513 0.00045784 0.000501244 0.000716513 0.00076216 0.000635866 0.000716513 0.0010161 0.0011361 0.000716513 0.00076216 0.0011361 0.00120871 0.00412244 0.00449108 0.00592294 0.0065159 0.000501244 0.000499401 0.00076216 0.00076974 0.000499401 0.000497558 0.00076974 0.000720147 0.00076216 0.00076974 0.00120871 0.00123714 0.00076974 0.000720147 0.00123714 0.00114968 0.00507083 0.00592294 0.00683219 0.00804927 0.00683219 0.00804927 0.00868911 0.0103767 0.00409783 0.00591077 0.00446372 0.00650226 0.00506095 0.00682884 0.00591077 0.00804405 0.00682884 0.00868911 0.00804405 0.0103751 0 0.000398105 0 0.000447488 0.000398105 0.000879434 0.000447488 0.000983739 0 0.000447488 0 0.000473623 0.000447488 0.000983739 0.000473623 0.0010436 0 0.000473623 0 0.000472992 0.000473623 0.0010436 0.000472992 0.00105013 0 0.000472992 0 0.000438664 0.000472992 0.00105013 0.000438664 0.00097014 0.00434887 0.00409111 0.00523072 0.00497014 0.00409111 0.00368562 0.00497014 0.00453692 0.00523072 0.00497014 0.00638512 0.00595147 0.00497014 0.00453692 0.00595147 0.00545881 0.00368562 0.00327657 0.00453692 0.00398407 0.00327657 0.00273037 0.00398407 0.00329199 0.00453692 0.00398407 0.00545881 0.00477606 0.00398407 0.00329199 0.00477606 0.00401633 0.00545881 0.00477606 0.00652049 0.00572649 0.00572649 0.00481463 0.00667827 0.00561768 0.00640258 0.00435944 0.00698795 0.00485596 0.00698795 0.00485596 0.00751404 0.00512836 0.00485596 0.00239173 0.00512836 0.00266136 0.00239173 0 0.00266136 0 0.00512836 0.00266136 0.00542091 0.00276443 0.00266136 0 0.00276443 0 0.00759312 0.00667827 0.00880061 0.0077291 0.00667827 0.00561768 0.0077291 0.00653204 0.0079142 0.00542091 0.00822251 0.00563301 0.0104732 0.00822251 0.0106195 0.0083502 0.00822251 0.00563301 0.0083502 0.00569429 0.00542091 0.00276443 0.00563301 0.00286239 0.00276443 0 0.00286239 0 0.00563301 0.00286239 0.00569429 0.00291864 0.00286239 0 0.00291864 0 0.0106195 0.0083502 0.0105744 0.00831256 0.0083502 0.00569429 0.00831256 0.00567113 0.0105744 0.00831256 0.0102852 0.00809143 0.00831256 0.00567113 0.00809143 0.00551648 0.00569429 0.00291864 0.00567113 0.00290344 0.00291864 0 0.00290344 0 0.00567113 0.00290344 0.00551648 0.00282415 0.00290344 0 0.00282415 0 0.00401633 0.00315212 0.00481463 0.00373877 0.00315212 0.0021398 0.00373877 0.0025152 0.00481463 0.00373877 0.00561768 0.00435188 0.00373877 0.0025152 0.00435188 0.00300398 0.00435188 0.00300398 0.00505539 0.00349074 0.00300398 0.0015437 0.00349074 0.00175216 0.0015437 0 0.00175216 0 0.00349074 0.00175216 0.00394511 0.00198755 0.00175216 0 0.00198755 0 0.00640769 0.00698504 0.00436231 0.00486089 0.00962676 0.0101206 0.00754128 0.0079324 0.00698504 0.00754128 0.00486089 0.0051317 0.00486089 0.0051317 0.00239322 0.00266272 0.0051317 0.00542366 0.00266272 0.00276643 0.00239322 0.00266272 0 0 0.00266272 0.00276643 0 0 0.0104726 0.0106329 0.0082266 0.00835334 0.0079324 0.0082266 0.00542366 0.00563635 0.0082266 0.00835334 0.00563635 0.00569753 0.0106329 0.01058 0.00835334 0.00831696 0.01058 0.0102899 0.00831696 0.00809496 0.00835334 0.00831696 0.00569753 0.00567471 0.00831696 0.00809496 0.00567471 0.0055211 0.00542366 0.00563635 0.00276643 0.00286487 0.00563635 0.00569753 0.00286487 0.002921 0.00276643 0.00286487 0 0 0.00286487 0.002921 0 0 0.00569753 0.00567471 0.002921 0.00290503 0.00567471 0.0055211 0.00290503 0.00283159 0.002921 0.00290503 0 0 0.00290503 0.00283159 0 0 0.00198816 0.00220211 0.00243914 0.00266473 0.00220211 0.00241605 0.00266473 0.00292151 0.00243914 0.00266473 0.00289011 0.00325849 0.00266473 0.00292151 0.00325849 0.00357869 0.0102852 0.00809143 0.00975966 0.00767265 0.00809143 0.00551648 0.00767265 0.00525229 0.00767265 0.00525229 0.0070705 0.00484426 0.00551648 0.00282415 0.00525229 0.00269139 0.00282415 0 0.00269139 0 0.00525229 0.00269139 0.00484426 0.00245966 0.00269139 0 0.00245966 0 0.00898128 0.0070705 0.00798783 0.00627424 0.0070705 0.00484426 0.00627424 0.00429381 0.00484426 0.00245966 0.00429381 0.00219992 0.00245966 0 0.00219992 0 0.00429381 0.00219992 0.00359921 0.00184643 0.00219992 0 0.00184643 0 0.0102899 0.0097622 0.00809496 0.00767455 0.00809496 0.00767455 0.0055211 0.0052596 0.00767455 0.00707163 0.0052596 0.00484694 0.00898265 0.00798834 0.00707163 0.00627478 0.00707163 0.00627478 0.00484694 0.00429411 0.0055211 0.0052596 0.00283159 0.00267441 0.0052596 0.00484694 0.00267441 0.00246665 0.00283159 0.00267441 0 0 0.00267441 0.00246665 0 0 0.00484694 0.00429411 0.00246665 0.0021995 0.00429411 0.00359931 0.0021995 0.00184652 0.00246665 0.0021995 0 0 0.0021995 0.00184652 0 0 0.00671071 0.00526182 0.005262 0.00415233 0.00415233 0.00280935 0.00280943 0.00202301 0.00359921 0.00184643 0.00280935 0.00146864 0.00184643 0 0.00146864 0 0.00280935 0.00146864 0.00202301 0.000949499 0.00146864 0 0.000949499 0 0.00359931 0.00280943 0.00184652 0.00146869 0.00280943 0.00202301 0.00146869 0.000949522 0.00184652 0.00146869 0 0 0.00146869 0.000949522 0 0 0.00289011 0.00325849 0.00347296 0.00385527 0.00325849 0.00357869 0.00385527 0.00424997 0.00347296 0.00385527 0.0040558 0.0045955 0.00385527 0.00424997 0.0045955 0.00507083 0.00592294 0.00621942 0.00698611 0.00740064 0.00621942 0.0065159 0.00740064 0.00762625 0.00698611 0.00740064 0.00804927 0.0085476 0.00195518 0.00241493 0.00216524 0.00263899 0.00241493 0.00287467 0.00263899 0.00323977 0.00216524 0.00263899 0.0023753 0.00289281 0.00263899 0.00323977 0.00289281 0.00355779 0.00804927 0.0085476 0.00921298 0.00981464 0.00921298 0.00981464 0.0103767 0.0110058 0.00981464 0.0102009 0.0110058 0.0115291 0.00287467 0.00346231 0.00323977 0.00384276 0.00346231 0.00404995 0.00384276 0.00458718 0.00323977 0.00384276 0.00355779 0.00423552 0.00384276 0.00458718 0.00423552 0.00506095 0.0040558 0.0045955 0.00473552 0.00530984 0.0045955 0.00507083 0.00530984 0.00595151 0.00473552 0.00530984 0.00541524 0.00614703 0.00530984 0.00595151 0.00614703 0.00683219 0.00404995 0.0047326 0.00458718 0.00530523 0.0047326 0.00541524 0.00530523 0.00614483 0.00458718 0.00530523 0.00506095 0.00594489 0.00530523 0.00614483 0.00594489 0.00682884 0.00591077 0.00697741 0.00620652 0.00739159 0.00697741 0.00804405 0.00739159 0.00854169 0.00620652 0.00739159 0.00650226 0.00761702 0.00804405 0.00920957 0.00854169 0.00981099 0.00920957 0.0103751 0.00981099 0.0110039 0.00981099 0.0110039 0.0101974 0.0115274 0.00432136 0.00521179 0.00406529 0.00495252 0.00521179 0.00637219 0.00495252 0.00593959 0.00406529 0.00495252 0.00366249 0.00452106 0.00495252 0.00593959 0.00452106 0.0054477 0.00366249 0.00452106 0.00325631 0.00397023 0.00452106 0.0054477 0.00397023 0.00476702 0.00325631 0.00397023 0.00271366 0.00328057 0.00397023 0.00476702 0.00328057 0.00400886 0.00400886 0.00481082 0.00314638 0.00373599 0.00481082 0.00561606 0.00373599 0.00435188 0.00314638 0.00373599 0.00213597 0.00251328 0.00373599 0.00435188 0.00251328 0.00300386 0.00435188 0.00505693 0.00300386 0.00349215 0.00300386 0.00349215 0.00154365 0.00175293 0.00349215 0.00394726 0.00175293 0.00198901 0.00154365 0.00175293 0 0 0.00175293 0.00198901 0 0 0.0054477 0.00651423 0.00476702 0.00572146 0.00572146 0.00667729 0.00481082 0.00561606 0.00759199 0.00879755 0.00667729 0.0077231 0.00879755 0.00987502 0.0077231 0.00879338 0.00667729 0.0077231 0.00561606 0.00653461 0.00868911 0.0095329 0.0095321 0.0104824 0.0095329 0.0103767 0.0104824 0.0114203 0.0095321 0.0104824 0.0103751 0.0114197 0.0115291 0.0119059 0.0127714 0.013068 0.0115274 0.012771 0.0119047 0.0130684 0.00198755 0 0.00219884 0 0.00198901 0.00220041 0 0 0.000949499 0 0.000485895 0 0.000949522 0.000485895 0 0 0.000485895 0 0 0 0.00541524 0.00614703 0.00614483 0.00692869 0.00614703 0.00683219 0.00692869 0.00776065 0.00614483 0.00692869 0.00682884 0.00775897 0.00692869 0.00776065 0.00775897 0.00868911 0.00114968 0.00105709 0.00141573 0.00133055 0.00105709 0.000964494 0.00133055 0.00125008 0.00141573 0.00133055 0.0018196 0.00170825 0.00133055 0.00125008 0.00170825 0.00153567 0.0018196 0.00170825 0.00224755 0.00211139 0.00170825 0.00153567 0.00211139 0.0019063 0.00224755 0.00211139 0.00284645 0.00268192 0.00211139 0.0019063 0.00268192 0.00242387 0.00153567 0.00131735 0.0019063 0.00168185 0.00131735 0.00109902 0.00168185 0.00143227 0.0019063 0.00168185 0.00242387 0.00214328 0.00168185 0.00143227 0.00214328 0.00176553 0.00172552 0.00217682 0.00159507 0.00204741 0.00217682 0.00279468 0.00204741 0.00263268 0.00159507 0.00204741 0.00146461 0.00184636 0.00204741 0.00263268 0.00184636 0.00237971 0.00146461 0.00184636 0.0012525 0.00162978 0.00184636 0.00237971 0.00162978 0.0021036 0.0012525 0.00162978 0.00104039 0.00138634 0.00162978 0.0021036 0.00138634 0.0017323 0.0015635 0.00168171 0.00198977 0.00209601 0.00168171 0.00179992 0.00209601 0.00221073 0.00198977 0.00209601 0.00241605 0.00261827 0.00209601 0.00221073 0.00261827 0.00276623 0.00179992 0.00185734 0.00221073 0.00231469 0.00185734 0.00191476 0.00231469 0.00237518 0.00221073 0.00231469 0.00276623 0.00290767 0.00231469 0.00237518 0.00290767 0.00298959 0.00120871 0.00122293 0.00156174 0.00153562 0.00122293 0.00123714 0.00153562 0.00152 0.00156174 0.00153562 0.00191476 0.00196434 0.00153562 0.00152 0.00196434 0.00194248 0.00123714 0.00119341 0.00152 0.00149209 0.00119341 0.00114968 0.00149209 0.00141573 0.00152 0.00149209 0.00194248 0.00190826 0.00149209 0.00141573 0.00190826 0.0018196 0.00191476 0.00196434 0.00237518 0.00241816 0.00196434 0.00194248 0.00241816 0.00240045 0.00237518 0.00241816 0.00298959 0.00304961 0.00241816 0.00240045 0.00304961 0.00303166 0.00194248 0.00190826 0.00240045 0.0023593 0.00190826 0.0018196 0.0023593 0.00224755 0.00240045 0.0023593 0.00303166 0.00298397 0.0023593 0.00224755 0.00298397 0.00284645 0.00176553 0.00134859 0.00216681 0.00168637 0.00134859 0.000931642 0.00168637 0.00117503 0.00216681 0.00168637 0.00273037 0.00213474 0.00168637 0.00117503 0.00213474 0.00141842 0.00273037 0.00213474 0.00329199 0.00257375 0.00213474 0.00141842 0.00257375 0.00177911 0.00329199 0.00257375 0.00401633 0.00315212 0.00257375 0.00177911 0.00315212 0.0021398 0.00298959 0.00304961 0.00364292 0.0037231 0.00304961 0.00303166 0.0037231 0.00370516 0.00364292 0.0037231 0.00449108 0.00462932 0.0037231 0.00370516 0.00462932 0.00460614 0.00303166 0.00298397 0.00370516 0.00365124 0.00298397 0.00284645 0.00365124 0.00348786 0.00370516 0.00365124 0.00460614 0.00454653 0.00365124 0.00348786 0.00454653 0.00434887 0.00449108 0.00462932 0.00550349 0.00553765 0.00462932 0.00460614 0.00553765 0.0055257 0.00550349 0.00553765 0.0065159 0.00672108 0.00553765 0.0055257 0.00672108 0.00670681 0.00460614 0.00454653 0.0055257 0.00546187 0.00454653 0.00434887 0.00546187 0.00523072 0.0055257 0.00546187 0.00670681 0.00664036 0.00546187 0.00523072 0.00664036 0.00638512 0.0065159 0.00672108 0.00762625 0.0078496 0.00672108 0.00670681 0.0078496 0.00784747 0.00762625 0.0078496 0.00895712 0.0092245 0.0078496 0.00784747 0.0092245 0.00923191 0.00670681 0.00664036 0.00784747 0.00778523 0.00664036 0.00638512 0.00778523 0.00746937 0.00784747 0.00778523 0.00923191 0.00917425 0.00778523 0.00746937 0.00917425 0.00883372 0.00895712 0.0092245 0.0102009 0.0105123 0.0092245 0.00923191 0.0105123 0.0105324 0.0102009 0.0105123 0.0115291 0.0119059 0.0105123 0.0105324 0.0119059 0.0119235 0.00923191 0.00917425 0.0105324 0.010478 0.00917425 0.00883372 0.010478 0.0100859 0.0105324 0.010478 0.0119235 0.0118895 0.010478 0.0100859 0.0118895 0.0114452 0.0014905 0.0019329 0.00160308 0.00203709 0.0019329 0.0023753 0.00203709 0.00257415 0.00160308 0.00203709 0.00171565 0.00214911 0.00203709 0.00257415 0.00214911 0.00271997 0.00171565 0.00214911 0.00177461 0.00225062 0.00214911 0.00271997 0.00225062 0.00285859 0.00177461 0.00225062 0.00183357 0.00230636 0.00225062 0.00285859 0.00230636 0.00293845 0.00183357 0.00230636 0.00183987 0.00234925 0.00230636 0.00293845 0.00234925 0.00299612 0.00183987 0.00234925 0.00184618 0.00232691 0.00234925 0.00299612 0.00232691 0.00297777 0.00184618 0.00232691 0.00178585 0.00228944 0.00232691 0.00297777 0.00228944 0.00292984 0.00178585 0.00228944 0.00172552 0.00217682 0.00228944 0.00292984 0.00217682 0.00279468 0.00293845 0.00360564 0.00299612 0.00368439 0.00360564 0.00446372 0.00368439 0.00460062 0.00299612 0.00368439 0.00297777 0.00366589 0.00368439 0.00460062 0.00366589 0.0045773 0.00446372 0.00548299 0.00460062 0.00551755 0.00548299 0.00650226 0.00551755 0.00670672 0.00460062 0.00551755 0.0045773 0.00550556 0.00551755 0.00670672 0.00550556 0.0066926 0.00297777 0.00366589 0.00292984 0.00361219 0.00366589 0.0045773 0.00361219 0.00451788 0.00292984 0.00361219 0.00279468 0.00345027 0.00361219 0.00451788 0.00345027 0.00432136 0.0045773 0.00550556 0.00451788 0.00544203 0.00550556 0.0066926 0.00544203 0.00662656 0.00451788 0.00544203 0.00432136 0.00521179 0.00544203 0.00662656 0.00521179 0.00637219 0.00650226 0.00761702 0.00670672 0.00784021 0.00761702 0.00895096 0.00784021 0.00921842 0.00670672 0.00784021 0.0066926 0.00783834 0.00784021 0.00921842 0.00783834 0.00922635 0.00895096 0.0101974 0.00921842 0.0105091 0.0101974 0.0115274 0.0105091 0.0119047 0.00921842 0.0105091 0.00922635 0.01053 0.0105091 0.0119047 0.01053 0.0119232 0.0066926 0.00783834 0.00662656 0.00777656 0.00783834 0.00922635 0.00777656 0.00916929 0.00662656 0.00777656 0.00637219 0.0074615 0.00777656 0.00916929 0.0074615 0.00882952 0.00922635 0.01053 0.00916929 0.0104765 0.01053 0.0119232 0.0104765 0.0118903 0.00916929 0.0104765 0.00882952 0.0100856 0.0104765 0.0118903 0.0100856 0.0114475 0.0017323 0.00214383 0.00132282 0.00166855 0.00214383 0.00271366 0.00166855 0.00212178 0.00132282 0.00166855 0.000913336 0.00116176 0.00166855 0.00212178 0.00116176 0.00141018 0.00271366 0.00328057 0.00212178 0.00256498 0.00328057 0.00400886 0.00256498 0.00314638 0.00212178 0.00256498 0.00141018 0.00177307 0.00256498 0.00314638 0.00177307 0.00213597 0.00284645 0.00268192 0.00348786 0.00328909 0.00268192 0.00242387 0.00328909 0.00296917 0.00348786 0.00328909 0.00434887 0.00409111 0.00328909 0.00296917 0.00409111 0.00368562 0.00242387 0.00214328 0.00296917 0.00262214 0.00214328 0.00176553 0.00262214 0.00216681 0.00296917 0.00262214 0.00368562 0.00327657 0.00262214 0.00216681 0.00327657 0.00273037 0.0021398 0.0010699 0.0025152 0.00129279 0.0010699 0 0.00129279 0 0.0025152 0.00129279 0.00300398 0.0015437 0.00129279 0 0.0015437 0 0.00241605 0.00261827 0.00292151 0.00316203 0.00261827 0.00276623 0.00316203 0.00335649 0.00292151 0.00316203 0.00357869 0.00389282 0.00316203 0.00335649 0.00389282 0.00412244 0.00276623 0.00290767 0.00335649 0.00353953 0.00290767 0.00298959 0.00353953 0.00364292 0.00335649 0.00353953 0.00412244 0.00430676 0.00353953 0.00364292 0.00430676 0.00449108 0.00357869 0.00389282 0.00424997 0.00462816 0.00389282 0.00412244 0.00462816 0.00502269 0.00424997 0.00462816 0.00507083 0.00549688 0.00462816 0.00502269 0.00549688 0.00592294 0.0023753 0.00289281 0.00257415 0.00313079 0.00289281 0.00355779 0.00313079 0.0038697 0.00257415 0.00313079 0.00271997 0.00332304 0.00313079 0.0038697 0.00332304 0.00409783 0.00355779 0.00423552 0.0038697 0.00461202 0.00423552 0.00506095 0.00461202 0.00548586 0.0038697 0.00461202 0