<?xml version="1.0" ?> 
<!-- 
# vtk DataFile Version 3.0
#This file was generated by the deal.II library on 21:42:32 at 2021/4/29
-->
<VTKFile type="UnstructuredGrid" version="0.1" byte_order="LittleEndian">
<UnstructuredGrid>
<Piece NumberOfPoints="65536" NumberOfCells="16384" >
  <Points>
    <DataArray type="Float32" NumberOfComponents="3" format="ascii">
-1 -1 0
-0.984375 -1 0
-1 -0.984375 0
-0.984375 -0.984375 0
-0.984375 -1 0
-0.96875 -1 0
-0.984375 -0.984375 0
-0.96875 -0.984375 0
-1 -0.984375 0
-0.984375 -0.984375 0
-1 -0.96875 0
-0.984375 -0.96875 0
-0.984375 -0.984375 0
-0.96875 -0.984375 0
-0.984375 -0.96875 0
-0.96875 -0.96875 0
-0.96875 -1 0
-0.953125 -1 0
-0.96875 -0.984375 0
-0.953125 -0.984375 0
-0.953125 -1 0
-0.9375 -1 0
-0.953125 -0.984375 0
-0.9375 -0.984375 0
-0.96875 -0.984375 0
-0.953125 -0.984375 0
-0.96875 -0.96875 0
-0.953125 -0.96875 0
-0.953125 -0.984375 0
-0.9375 -0.984375 0
-0.953125 -0.96875 0
-0.9375 -0.96875 0
-1 -0.96875 0
-0.984375 -0.96875 0
-1 -0.953125 0
-0.984375 -0.953125 0
-0.984375 -0.96875 0
-0.96875 -0.96875 0
-0.984375 -0.953125 0
-0.96875 -0.953125 0
-1 -0.953125 0
-0.984375 -0.953125 0
-1 -0.9375 0
-0.984375 -0.9375 0
-0.984375 -0.953125 0
-0.96875 -0.953125 0
-0.984375 -0.9375 0
-0.96875 -0.9375 0
-0.96875 -0.96875 0
-0.953125 -0.96875 0
-0.96875 -0.953125 0
-0.953125 -0.953125 0
-0.953125 -0.96875 0
-0.9375 -0.96875 0
-0.953125 -0.953125 0
-0.9375 -0.953125 0
-0.96875 -0.953125 0
-0.953125 -0.953125 0
-0.96875 -0.9375 0
-0.953125 -0.9375 0
-0.953125 -0.953125 0
-0.9375 -0.953125 0
-0.953125 -0.9375 0
-0.9375 -0.9375 0
-0.9375 -1 0
-0.921875 -1 0
-0.9375 -0.984375 0
-0.921875 -0.984375 0
-0.921875 -1 0
-0.90625 -1 0
-0.921875 -0.984375 0
-0.90625 -0.984375 0
-0.9375 -0.984375 0
-0.921875 -0.984375 0
-0.9375 -0.96875 0
-0.921875 -0.96875 0
-0.921875 -0.984375 0
-0.90625 -0.984375 0
-0.921875 -0.96875 0
-0.90625 -0.96875 0
-0.90625 -1 0
-0.890625 -1 0
-0.90625 -0.984375 0
-0.890625 -0.984375 0
-0.890625 -1 0
-0.875 -1 0
-0.890625 -0.984375 0
-0.875 -0.984375 0
-0.90625 -0.984375 0
-0.890625 -0.984375 0
-0.90625 -0.96875 0
-0.890625 -0.96875 0
-0.890625 -0.984375 0
-0.875 -0.984375 0
-0.890625 -0.96875 0
-0.875 -0.96875 0
-0.9375 -0.96875 0
-0.921875 -0.96875 0
-0.9375 -0.953125 0
-0.921875 -0.953125 0
-0.921875 -0.96875 0
-0.90625 -0.96875 0
-0.921875 -0.953125 0
-0.90625 -0.953125 0
-0.9375 -0.953125 0
-0.921875 -0.953125 0
-0.9375 -0.9375 0
-0.921875 -0.9375 0
-0.921875 -0.953125 0
-0.90625 -0.953125 0
-0.921875 -0.9375 0
-0.90625 -0.9375 0
-0.90625 -0.96875 0
-0.890625 -0.96875 0
-0.90625 -0.953125 0
-0.890625 -0.953125 0
-0.890625 -0.96875 0
-0.875 -0.96875 0
-0.890625 -0.953125 0
-0.875 -0.953125 0
-0.90625 -0.953125 0
-0.890625 -0.953125 0
-0.90625 -0.9375 0
-0.890625 -0.9375 0
-0.890625 -0.953125 0
-0.875 -0.953125 0
-0.890625 -0.9375 0
-0.875 -0.9375 0
-1 -0.9375 0
-0.984375 -0.9375 0
-1 -0.921875 0
-0.984375 -0.921875 0
-0.984375 -0.9375 0
-0.96875 -0.9375 0
-0.984375 -0.921875 0
-0.96875 -0.921875 0
-1 -0.921875 0
-0.984375 -0.921875 0
-1 -0.90625 0
-0.984375 -0.90625 0
-0.984375 -0.921875 0
-0.96875 -0.921875 0
-0.984375 -0.90625 0
-0.96875 -0.90625 0
-0.96875 -0.9375 0
-0.953125 -0.9375 0
-0.96875 -0.921875 0
-0.953125 -0.921875 0
-0.953125 -0.9375 0
-0.9375 -0.9375 0
-0.953125 -0.921875 0
-0.9375 -0.921875 0
-0.96875 -0.921875 0
-0.953125 -0.921875 0
-0.96875 -0.90625 0
-0.953125 -0.90625 0
-0.953125 -0.921875 0
-0.9375 -0.921875 0
-0.953125 -0.90625 0
-0.9375 -0.90625 0
-1 -0.90625 0
-0.984375 -0.90625 0
-1 -0.890625 0
-0.984375 -0.890625 0
-0.984375 -0.90625 0
-0.96875 -0.90625 0
-0.984375 -0.890625 0
-0.96875 -0.890625 0
-1 -0.890625 0
-0.984375 -0.890625 0
-1 -0.875 0
-0.984375 -0.875 0
-0.984375 -0.890625 0
-0.96875 -0.890625 0
-0.984375 -0.875 0
-0.96875 -0.875 0
-0.96875 -0.90625 0
-0.953125 -0.90625 0
-0.96875 -0.890625 0
-0.953125 -0.890625 0
-0.953125 -0.90625 0
-0.9375 -0.90625 0
-0.953125 -0.890625 0
-0.9375 -0.890625 0
-0.96875 -0.890625 0
-0.953125 -0.890625 0
-0.96875 -0.875 0
-0.953125 -0.875 0
-0.953125 -0.890625 0
-0.9375 -0.890625 0
-0.953125 -0.875 0
-0.9375 -0.875 0
-0.9375 -0.9375 0
-0.921875 -0.9375 0
-0.9375 -0.921875 0
-0.921875 -0.921875 0
-0.921875 -0.9375 0
-0.90625 -0.9375 0
-0.921875 -0.921875 0
-0.90625 -0.921875 0
-0.9375 -0.921875 0
-0.921875 -0.921875 0
-0.9375 -0.90625 0
-0.921875 -0.90625 0
-0.921875 -0.921875 0
-0.90625 -0.921875 0
-0.921875 -0.90625 0
-0.90625 -0.90625 0
-0.90625 -0.9375 0
-0.890625 -0.9375 0
-0.90625 -0.921875 0
-0.890625 -0.921875 0
-0.890625 -0.9375 0
-0.875 -0.9375 0
-0.890625 -0.921875 0
-0.875 -0.921875 0
-0.90625 -0.921875 0
-0.890625 -0.921875 0
-0.90625 -0.90625 0
-0.890625 -0.90625 0
-0.890625 -0.921875 0
-0.875 -0.921875 0
-0.890625 -0.90625 0
-0.875 -0.90625 0
-0.9375 -0.90625 0
-0.921875 -0.90625 0
-0.9375 -0.890625 0
-0.921875 -0.890625 0
-0.921875 -0.90625 0
-0.90625 -0.90625 0
-0.921875 -0.890625 0
-0.90625 -0.890625 0
-0.9375 -0.890625 0
-0.921875 -0.890625 0
-0.9375 -0.875 0
-0.921875 -0.875 0
-0.921875 -0.890625 0
-0.90625 -0.890625 0
-0.921875 -0.875 0
-0.90625 -0.875 0
-0.90625 -0.90625 0
-0.890625 -0.90625 0
-0.90625 -0.890625 0
-0.890625 -0.890625 0
-0.890625 -0.90625 0
-0.875 -0.90625 0
-0.890625 -0.890625 0
-0.875 -0.890625 0
-0.90625 -0.890625 0
-0.890625 -0.890625 0
-0.90625 -0.875 0
-0.890625 -0.875 0
-0.890625 -0.890625 0
-0.875 -0.890625 0
-0.890625 -0.875 0
-0.875 -0.875 0
-0.875 -1 0
-0.859375 -1 0
-0.875 -0.984375 0
-0.859375 -0.984375 0
-0.859375 -1 0
-0.84375 -1 0
-0.859375 -0.984375 0
-0.84375 -0.984375 0
-0.875 -0.984375 0
-0.859375 -0.984375 0
-0.875 -0.96875 0
-0.859375 -0.96875 0
-0.859375 -0.984375 0
-0.84375 -0.984375 0
-0.859375 -0.96875 0
-0.84375 -0.96875 0
-0.84375 -1 0
-0.828125 -1 0
-0.84375 -0.984375 0
-0.828125 -0.984375 0
-0.828125 -1 0
-0.8125 -1 0
-0.828125 -0.984375 0
-0.8125 -0.984375 0
-0.84375 -0.984375 0
-0.828125 -0.984375 0
-0.84375 -0.96875 0
-0.828125 -0.96875 0
-0.828125 -0.984375 0
-0.8125 -0.984375 0
-0.828125 -0.96875 0
-0.8125 -0.96875 0
-0.875 -0.96875 0
-0.859375 -0.96875 0
-0.875 -0.953125 0
-0.859375 -0.953125 0
-0.859375 -0.96875 0
-0.84375 -0.96875 0
-0.859375 -0.953125 0
-0.84375 -0.953125 0
-0.875 -0.953125 0
-0.859375 -0.953125 0
-0.875 -0.9375 0
-0.859375 -0.9375 0
-0.859375 -0.953125 0
-0.84375 -0.953125 0
-0.859375 -0.9375 0
-0.84375 -0.9375 0
-0.84375 -0.96875 0
-0.828125 -0.96875 0
-0.84375 -0.953125 0
-0.828125 -0.953125 0
-0.828125 -0.96875 0
-0.8125 -0.96875 0
-0.828125 -0.953125 0
-0.8125 -0.953125 0
-0.84375 -0.953125 0
-0.828125 -0.953125 0
-0.84375 -0.9375 0
-0.828125 -0.9375 0
-0.828125 -0.953125 0
-0.8125 -0.953125 0
-0.828125 -0.9375 0
-0.8125 -0.9375 0
-0.8125 -1 0
-0.796875 -1 0
-0.8125 -0.984375 0
-0.796875 -0.984375 0
-0.796875 -1 0
-0.78125 -1 0
-0.796875 -0.984375 0
-0.78125 -0.984375 0
-0.8125 -0.984375 0
-0.796875 -0.984375 0
-0.8125 -0.96875 0
-0.796875 -0.96875 0
-0.796875 -0.984375 0
-0.78125 -0.984375 0
-0.796875 -0.96875 0
-0.78125 -0.96875 0
-0.78125 -1 0
-0.765625 -1 0
-0.78125 -0.984375 0
-0.765625 -0.984375 0
-0.765625 -1 0
-0.75 -1 0
-0.765625 -0.984375 0
-0.75 -0.984375 0
-0.78125 -0.984375 0
-0.765625 -0.984375 0
-0.78125 -0.96875 0
-0.765625 -0.96875 0
-0.765625 -0.984375 0
-0.75 -0.984375 0
-0.765625 -0.96875 0
-0.75 -0.96875 0
-0.8125 -0.96875 0
-0.796875 -0.96875 0
-0.8125 -0.953125 0
-0.796875 -0.953125 0
-0.796875 -0.96875 0
-0.78125 -0.96875 0
-0.796875 -0.953125 0
-0.78125 -0.953125 0
-0.8125 -0.953125 0
-0.796875 -0.953125 0
-0.8125 -0.9375 0
-0.796875 -0.9375 0
-0.796875 -0.953125 0
-0.78125 -0.953125 0
-0.796875 -0.9375 0
-0.78125 -0.9375 0
-0.78125 -0.96875 0
-0.765625 -0.96875 0
-0.78125 -0.953125 0
-0.765625 -0.953125 0
-0.765625 -0.96875 0
-0.75 -0.96875 0
-0.765625 -0.953125 0
-0.75 -0.953125 0
-0.78125 -0.953125 0
-0.765625 -0.953125 0
-0.78125 -0.9375 0
-0.765625 -0.9375 0
-0.765625 -0.953125 0
-0.75 -0.953125 0
-0.765625 -0.9375 0
-0.75 -0.9375 0
-0.875 -0.9375 0
-0.859375 -0.9375 0
-0.875 -0.921875 0
-0.859375 -0.921875 0
-0.859375 -0.9375 0
-0.84375 -0.9375 0
-0.859375 -0.921875 0
-0.84375 -0.921875 0
-0.875 -0.921875 0
-0.859375 -0.921875 0
-0.875 -0.90625 0
-0.859375 -0.90625 0
-0.859375 -0.921875 0
-0.84375 -0.921875 0
-0.859375 -0.90625 0
-0.84375 -0.90625 0
-0.84375 -0.9375 0
-0.828125 -0.9375 0
-0.84375 -0.921875 0
-0.828125 -0.921875 0
-0.828125 -0.9375 0
-0.8125 -0.9375 0
-0.828125 -0.921875 0
-0.8125 -0.921875 0
-0.84375 -0.921875 0
-0.828125 -0.921875 0
-0.84375 -0.90625 0
-0.828125 -0.90625 0
-0.828125 -0.921875 0
-0.8125 -0.921875 0
-0.828125 -0.90625 0
-0.8125 -0.90625 0
-0.875 -0.90625 0
-0.859375 -0.90625 0
-0.875 -0.890625 0
-0.859375 -0.890625 0
-0.859375 -0.90625 0
-0.84375 -0.90625 0
-0.859375 -0.890625 0
-0.84375 -0.890625 0
-0.875 -0.890625 0
-0.859375 -0.890625 0
-0.875 -0.875 0
-0.859375 -0.875 0
-0.859375 -0.890625 0
-0.84375 -0.890625 0
-0.859375 -0.875 0
-0.84375 -0.875 0
-0.84375 -0.90625 0
-0.828125 -0.90625 0
-0.84375 -0.890625 0
-0.828125 -0.890625 0
-0.828125 -0.90625 0
-0.8125 -0.90625 0
-0.828125 -0.890625 0
-0.8125 -0.890625 0
-0.84375 -0.890625 0
-0.828125 -0.890625 0
-0.84375 -0.875 0
-0.828125 -0.875 0
-0.828125 -0.890625 0
-0.8125 -0.890625 0
-0.828125 -0.875 0
-0.8125 -0.875 0
-0.8125 -0.9375 0
-0.796875 -0.9375 0
-0.8125 -0.921875 0
-0.796875 -0.921875 0
-0.796875 -0.9375 0
-0.78125 -0.9375 0
-0.796875 -0.921875 0
-0.78125 -0.921875 0
-0.8125 -0.921875 0
-0.796875 -0.921875 0
-0.8125 -0.90625 0
-0.796875 -0.90625 0
-0.796875 -0.921875 0
-0.78125 -0.921875 0
-0.796875 -0.90625 0
-0.78125 -0.90625 0
-0.78125 -0.9375 0
-0.765625 -0.9375 0
-0.78125 -0.921875 0
-0.765625 -0.921875 0
-0.765625 -0.9375 0
-0.75 -0.9375 0
-0.765625 -0.921875 0
-0.75 -0.921875 0
-0.78125 -0.921875 0
-0.765625 -0.921875 0
-0.78125 -0.90625 0
-0.765625 -0.90625 0
-0.765625 -0.921875 0
-0.75 -0.921875 0
-0.765625 -0.90625 0
-0.75 -0.90625 0
-0.8125 -0.90625 0
-0.796875 -0.90625 0
-0.8125 -0.890625 0
-0.796875 -0.890625 0
-0.796875 -0.90625 0
[...]
  <PointData Scalars="scalars">
    <DataArray type="Float32" Name="U" format="ascii">
0 0 0 0.000616143 0 0 0.000616143 0.00123169 0 0.000616143 0 0.00117405 0.000616143 0.00123169 0.00117405 0.00234685 0 0 0.00123169 0.00184678 0 0 0.00184678 0.00246256 0.00123169 0.00184678 0.00234685 0.00351363 0.00184678 0.00246256 0.00351363 0.00466332 0 0.00117405 0 0.00147939 0.00117405 0.00234685 0.00147939 0.00296208 0 0.00147939 0 0.00156358 0.00147939 0.00296208 0.00156358 0.00313118 0.00234685 0.00351363 0.00296208 0.00444899 0.00351363 0.00466332 0.00444899 0.00593593 0.00296208 0.00444899 0.00313118 0.00470707 0.00444899 0.00593593 0.00470707 0.00629569 0 0 0.00246256 0.00308022 0 0 0.00308022 0.00369728 0.00246256 0.00308022 0.00466332 0.00577749 0.00308022 0.00369728 0.00577749 0.00683246 0 0 0.00369728 0.00430045 0 0 0.00430045 0.00485706 0.00369728 0.00430045 0.00683246 0.00780465 0.00430045 0.00485706 0.00780465 0.00867663 0.00466332 0.00577749 0.00593593 0.00741058 0.00577749 0.00683246 0.00741058 0.00884982 0.00593593 0.00741058 0.00629569 0.00790021 0.00741058 0.00884982 0.00790021 0.00951778 0.00683246 0.00780465 0.00884982 0.0102193 0.00780465 0.00867663 0.0102193 0.0114773 0.00884982 0.0102193 0.00951778 0.0111294 0.0102193 0.0114773 0.0111294 0.0126856 0 0.00156358 0 0.00154036 0.00156358 0.00313118 0.00154036 0.00308011 0 0.00154036 0 0.00140386 0.00154036 0.00308011 0.00140386 0.0027938 0.00313118 0.00470707 0.00308011 0.00461669 0.00470707 0.00629569 0.00461669 0.00614379 0.00308011 0.00461669 0.0027938 0.00415701 0.00461669 0.00614379 0.00415701 0.00548194 0 0.00140386 0 0.00125685 0.00140386 0.0027938 0.00125685 0.0024832 0 0.00125685 0 0.00108686 0.00125685 0.0024832 0.00108686 0.00214917 0.0027938 0.00415701 0.0024832 0.0036504 0.00415701 0.00548194 0.0036504 0.00473456 0.0024832 0.0036504 0.00214917 0.00315835 0.0036504 0.00473456 0.00315835 0.00407847 0.00629569 0.00790021 0.00614379 0.00765057 0.00790021 0.00951778 0.00765057 0.00912292 0.00614379 0.00765057 0.00548194 0.00675692 0.00765057 0.00912292 0.00675692 0.00796746 0.00951778 0.0111294 0.00912292 0.0105467 0.0111294 0.0126856 0.0105467 0.0119096 0.00912292 0.0105467 0.00796746 0.00909502 0.0105467 0.0119096 0.00909502 0.0101216 0.00548194 0.00675692 0.00473456 0.00572056 0.00675692 0.00796746 0.00572056 0.00660433 0.00473456 0.00572056 0.00407847 0.00486539 0.00572056 0.00660433 0.00486539 0.0054714 0.00796746 0.00909502 0.00660433 0.00738872 0.00909502 0.0101216 0.00738872 0.00806988 0.00660433 0.00738872 0.0054714 0.00585709 0.00738872 0.00806988 0.00585709 0.00600561 0 0 0.00485706 0.00531183 0 0 0.00531183 0.00559838 0.00485706 0.00531183 0.00867663 0.00943766 0.00531183 0.00559838 0.00943766 0.0100725 0 0 0.00559838 0.00566927 0 0 0.00566927 0.00553152 0.00559838 0.00566927 0.0100725 0.0105406 0.00566927 0.00553152 0.0105406 0.0107599 0.00867663 0.00943766 0.0114773 0.0125817 0.00943766 0.0100725 0.0125817 0.0134945 0.0114773 0.0125817 0.0126856 0.0140962 0.0125817 0.0134945 0.0140962 0.0152382 0.0100725 0.0105406 0.0134945 0.0141725 0.0105406 0.0107599 0.0141725 0.014541 0.0134945 0.0141725 0.0152382 0.0159896 0.0141725 0.014541 0.0159896 0.0162746 0 0 0.00553152 0.0052561 0 0 0.0052561 0.00493269 0.00553152 0.0052561 0.0107599 0.0106182 0.0052561 0.00493269 0.0106182 0.0100166 0 0 0.00493269 0.00458017 0 0 0.00458017 0.00407987 0.00493269 0.00458017 0.0100166 0.00891863 0.00458017 0.00407987 0.00891863 0.00735823 0.0107599 0.0106182 0.014541 0.0144689 0.0106182 0.0100166 0.0144689 0.0137837 0.014541 0.0144689 0.0162746 0.0160794 0.0144689 0.0137837 0.0160794 0.0154036 0.0100166 0.00891863 0.0137837 0.0123478 0.00891863 0.00735823 0.0123478 0.0101543 0.0137837 0.0123478 0.0154036 0.0141707 0.0123478 0.0101543 0.0141707 0.0121894 0.0126856 0.0140962 0.0119096 0.0131931 0.0140962 0.0152382 0.0131931 0.0143526 0.0119096 0.0131931 0.0101216 0.0110412 0.0131931 0.0143526 0.0110412 0.0118663 0.0152382 0.0159896 0.0143526 0.015294 0.0159896 0.0162746 0.015294 0.0158751 0.0143526 0.015294 0.0118663 0.0126077 0.015294 0.0158751 0.0126077 0.0132156 0.0101216 0.0110412 0.00806988 0.00862055 0.0110412 0.0118663 0.00862055 0.00898835 0.00806988 0.00862055 0.00600561 0.00592529 0.00862055 0.00898835 0.00592529 0.00562779 0.0118663 0.0126077 0.00898835 0.00912345 0.0126077 0.0132156 0.00912345 0.00901623 0.00898835 0.00912345 0.00562779 0.00509388 0.00912345 0.00901623 0.00509388 0.00427203 0.0162746 0.0160794 0.0158751 0.0159472 0.0160794 0.0154036 0.0159472 0.0154105 0.0158751 0.0159472 0.0132156 0.0135165 0.0159472 0.0154105 0.0135165 0.0132242 0.0154036 0.0141707 0.0154105 0.014211 0.0141707 0.0121894 0.014211 0.0122503 0.0154105 0.014211 0.0132242 0.0120613 0.014211 0.0122503 0.0120613 0.00990273 0.0132156 0.0135165 0.00901623 0.00868806 0.0135165 0.0132242 0.00868806 0.00810262 0.00901623 0.00868806 0.00427203 0.00314126 0.00868806 0.00810262 0.00314126 0.00177886 0.0132242 0.0120613 0.00810262 0.00707055 0.0120613 0.00990273 0.00707055 0.00528738 0.00810262 0.00707055 0.00177886 0.000302695 0.00707055 0.00528738 0.000302695 -0.00133554 0 0.00108686 0 0.00073241 0.00108686 0.00214917 0.00073241 0.00144774 0 0.00073241 0 0.000261724 0.00073241 0.00144774 0.000261724 0.000499257 0.00214917 0.00315835 0.00144774 0.00212742 0.00315835 0.00407847 0.00212742 0.00274848 0.00144774 0.00212742 0.000499257 0.00068986 0.00212742 0.00274848 0.00068986 0.000814054 0 0.000261724 0 -0.000195053 0.000261724 0.000499257 -0.000195053 -0.000418241 0 -0.000195053 0 -0.000621617 -0.000195053 -0.000418241 -0.000621617 -0.00127374 0.000499257 0.00068986 -0.000418241 -0.000695871 0.00068986 0.000814054 -0.000695871 -0.00105128 -0.000418241 -0.000695871 -0.00127374 -0.00198755 -0.000695871 -0.00105128 -0.00198755 -0.00279368 0.00407847 0.00486539 0.00274848 0.00327803 0.00486539 0.0054714 0.00327803 0.00366537 0.00274848 0.00327803 0.000814054 0.000857543 0.00327803 0.00366537 0.000857543 0.000810984 0.0054714 0.00585709 0.00366537 0.00383674 0.00585709 0.00600561 0.00383674 0.00370367 0.00366537 0.00383674 0.000810984 0.000662125 0.00383674 0.00370367 0.000662125 0.000375061 0.000814054 0.000857543 -0.00105128 -0.00150451 0.000857543 0.000810984 -0.00150451 -0.0020715 -0.00105128 -0.00150451 -0.00279368 -0.00371907 -0.00150451 -0.0020715 -0.00371907 -0.00478493 0.000810984 0.000662125 -0.0020715 -0.00276002 0.000662125 0.000375061 -0.00276002 -0.00356441 -0.0020715 -0.00276002 -0.00478493 -0.00600962 -0.00276002 -0.00356441 -0.00600962 -0.00741322 0 -0.000621617 0 -0.00114938 -0.000621617 -0.00127374 -0.00114938 -0.00231267 0 -0.00114938 0 -0.00181874 -0.00114938 -0.00231267 -0.00181874 -0.00364727 -0.00127374 -0.00198755 -0.00231267 -0.00350948 -0.00198755 -0.00279368 -0.00350948 -0.00477062 -0.00231267 -0.00350948 -0.00364727 -0.00548996 -0.00350948 -0.00477062 -0.00548996 -0.00734506 0 -0.00181874 0 -0.00238442 -0.00181874 -0.00364727 -0.00238442 -0.00479371 0 -0.00238442 0 -0.0029229 -0.00238442 -0.00479371 -0.0029229 -0.0058448 -0.00364727 -0.00548996 -0.00479371 -0.00724993 -0.00548996 -0.00734506 -0.00724993 -0.00976444 -0.00479371 -0.00724993 -0.0058448 -0.00877336 -0.00724993 -0.00976444 -0.00877336 -0.0117329 -0.00279368 -0.00371907 -0.00477062 -0.00614014 -0.00371907 -0.00478493 -0.00614014 -0.0076681 -0.00477062 -0.00614014 -0.00734506 -0.00921351 -0.00614014 -0.0076681 -0.00921351 -0.0111176 -0.00478493 -0.00600962 -0.0076681 -0.00939297 -0.00600962 -0.00741322 -0.00939297 -0.0113258 -0.0076681 -0.00939297 -0.0111176 -0.0131173 -0.00939297 -0.0113258 -0.0131173 -0.0152981 -0.00734506 -0.00921351 -0.00976444 -0.0123247 -0.00921351 -0.0111176 -0.0123247 -0.0148865 -0.00976444 -0.0123247 -0.0117329 -0.014765 -0.0123247 -0.0148865 -0.014765 -0.0179096 -0.0111176 -0.0131173 -0.0148865 -0.0173931 -0.0131173 -0.0152981 -0.0173931 -0.019831 -0.0148865 -0.0173931 -0.0179096 -0.021161 -0.0173931 -0.019831 -0.021161 -0.0244276 0.00600561 0.00592529 0.00370367 0.00319468 0.00592529 0.00562779 0.00319468 0.00230016 0.00370367 0.00319468 0.000375061 -0.00013643 0.00319468 0.00230016 -0.00013643 -0.0010113 0.00562779 0.00509388 0.00230016 0.0010877 0.00509388 0.00427203 0.0010877 -0.000353707 0.00230016 0.0010877 -0.0010113 -0.00238443 0.0010877 -0.000353707 -0.00238443 -0.00429014 0.000375061 -0.00013643 -0.00356441 -0.00447347 -0.00013643 -0.0010113 -0.00447347 -0.00551323 -0.00356441 -0.00447347 -0.00741322 -0.0090096 -0.00447347 -0.00551323 -0.0090096 -0.0107798 -0.0010113 -0.00238443 -0.00551323 -0.00681336 -0.00238443 -0.00429014 -0.00681336 -0.00861711 -0.00551323 -0.00681336 -0.0107798 -0.0126649 -0.00681336 -0.00861711 -0.0126649 -0.0146453 0.00427203 0.00314126 -0.000353707 -0.00200858 0.00314126 0.00177886 -0.00200858 -0.00395076 -0.000353707 -0.00200858 -0.00429014 -0.00663059 -0.00200858 -0.00395076 -0.00663059 -0.00929212 0.00177886 0.000302695 -0.00395076 -0.00622153 0.000302695 -0.00133554 -0.00622153 -0.00872763 -0.00395076 -0.00622153 -0.00929212 -0.0122959 -0.00622153 -0.00872763 -0.0122959 -0.0157402 -0.00429014 -0.00663059 -0.00861711 -0.0111485 -0.00663059 -0.00929212 -0.0111485 -0.014411 -0.00861711 -0.0111485 -0.0146453 -0.0168799 -0.0111485 -0.014411 -0.0168799 -0.0197031 -0.00929212 -0.0122959 -0.014411 -0.0181717 -0.0122959 -0.0157402 -0.0181717 -0.0222197 -0.014411 -0.0181717 -0.0197031 -0.0233441 -0.0181717 -0.0222197 -0.0233441 -0.0276469 -0.00741322 -0.0090096 -0.0113258 -0.0134567 -0.0090096 -0.0107798 -0.0134567 -0.0157793 -0.0113258 -0.0134567 -0.0152981 -0.0177216 -0.0134567 -0.0157793 -0.0177216 -0.0203774 -0.0107798 -0.0126649 -0.0157793 -0.0182862 -0.0126649 -0.0146453 -0.0182862 -0.0209065 -0.0157793 -0.0182862 -0.0203774 -0.0232071 -0.0182862 -0.0209065 -0.0232071 -0.0261846 -0.0152981 -0.0177216 -0.019831 -0.02229 -0.0177216 -0.0203774 -0.02229 -0.0249431 -0.019831 -0.02229 -0.0244276 -0.0275611 -0.02229 -0.0249431 -0.0275611 -0.0304935 -0.0203774 -0.0232071 -0.0249431 -0.0279165 -0.0232071 -0.0261846 -0.0279165 -0.0311772 -0.0249431 -0.0279165 -0.0304935 -0.0333807 -0.0279165 -0.0311772 -0.0333807 -0.036528 -0.0146453 -0.0168799 -0.0209065 -0.0234941 -0.0168799 -0.0197031 -0.0234941 -0.0260162 -0.0209065 -0.0234941 -0.0261846 -0.0293048 -0.0234941 -0.0260162 -0.0293048 -0.0324456 -0.0197031 -0.0233441 -0.0260162 -0.0287939 -0.0233441 -0.0276469 -0.0287939 -0.0323474 -0.0260162 -0.0287939 -0.0324456 -0.0354084 -0.0287939 -0.0323474 -0.0354084 -0.0383228 -0.0261846 -0.0293048 -0.0311772 -0.0346184 -0.0293048 -0.0324456 -0.0346184 -0.0382179 -0.0311772 -0.0346184 -0.036528 -0.0400812 -0.0346184 -0.0382179 -0.0400812 -0.0438835 -0.0324456 -0.0354084 -0.0382179 -0.0419245 -0.0354084 -0.0383228 -0.0419245 -0.0454396 -0.0382179 -0.0419245 -0.0438835 -0.0477584 -0.0419245 -0.0454396 -0.0477584 -0.0516638 0 0 0.00407987 0.00321417 0 0 0.00321417 0.00182226 0.00407987 0.00321417 0.00735823 0.00538901 0.00321417 0.00182226 0.00538901 0.0030169 0 0 0.00182226 -3.58627e-05 0 0 -3.58627e-05 -0.00207161 0.00182226 -3.58627e-05 0.0030169 0.000189364 -3.58627e-05 -0.00207161 0.000189364 -0.00313817 0.00735823 0.00538901 0.0101543 0.0073433 0.00538901 0.0030169 0.0073433 0.00407544 0.0101543 0.0073433 0.0121894 0.00923222 0.0073433 0.00407544 0.00923222 0.00518651 0.0030169 0.000189364 0.00407544 0.000341526 0.000189364 -0.00313817 0.000341526 -0.00409739 0.00407544 0.000341526 0.00518651 0.00011945 0.000341526 -0.00409739 0.00011945 -0.0058282 0 0 -0.00207161 -0.00397587 0 0 -0.00397587 -0.00569536 -0.00207161 -0.00397587 -0.00313817 -0.00692918 -0.00397587 -0.00569536 -0.00692918 -0.0110789 0 0 -0.00569536 -0.00751632 0 0 -0.00751632 -0.00982776 -0.00569536 -0.00751632 -0.0110789 -0.0155098 -0.00751632 -0.00982776 -0.0155098 -0.0202328 -0.00313817 -0.00692918 -0.00409739 -0.00951965 -0.00692918 -0.0110789 -0.00951965 -0.0159336 -0.00409739 -0.00951965 -0.0058282 -0.0126049 -0.00951965 -0.0159336 -0.0126049 -0.0202546 -0.0110789 -0.0155098 -0.0159336 -0.0229567 -0.0155098 -0.0202328 -0.0229567 -0.0300552 -0.0159336 -0.0229567 -0.0202546 -0.0287297 -0.0229567 -0.0300552 -0.0287297 -0.0377472 0.0121894 0.00923222 0.0122503 0.00929572 0.00923222 0.00518651 0.00929572 0.00504226 0.0122503 0.00929572 0.00990273 0.00677559 0.00929572 0.00504226 0.00677559 0.00267852 0.00518651 0.00011945 0.00504226 -0.000659021 0.00011945 -0.0058282 -0.000659021 -0.00762579 0.00504226 -0.000659021 0.00267852 -0.00257414 -0.000659021 -0.00762579 -0.00257414 -0.0092507 0.00990273 0.00677559 0.00528738 0.00252105 0.00677559 0.00267852 0.00252105 -0.00126379 0.00528738 0.00252105 -0.00133554 -0.00349248 0.00252105 -0.00126379 -0.00349248 -0.00667112 0.00267852 -0.00257414 -0.00126379 -0.00605699 -0.00257414 -0.0092507 -0.00605699 -0.0120867 -0.00126379 -0.00605699 -0.00667112 -0.0111768 -0.00605699 -0.0120867 -0.0111768 -0.0170277 -0.0058282 -0.0126049 -0.00762579 -0.01547 -0.0126049 -0.0202546 -0.01547 -0.0239611 -0.00762579 -0.01547 -0.0092507 -0.0174226 -0.01547 -0.0239611 -0.0174226 -0.0268705 -0.0202546 -0.0287297 -0.0239611 -0.033237 -0.0287297 -0.0377472 -0.033237 -0.0435767 -0.0239611 -0.033237 -0.0268705 -0.0373468 -0.033237 -0.0435767 -0.0373468 -0.0488611 -0.0092507 -0.0174226 -0.0120867 -0.019817 -0.0174226 -0.0268705 -0.019817 -0.0295346 -0.0120867 -0.019817 -0.0170277 -0.0242629 -0.019817 -0.0295346 -0.0242629 -0.0331794 -0.0268705 -0.0373468 -0.0295346 -0.0409853 -0.0373468 -0.0488611 -0.0409853 -0.0535648 -0.0295346 -0.0409853 -0.0331794 -0.0440439 -0.0409853 -0.0535648 -0.0440439 -0.0566118 0 0 -0.00982776 -0.0127354 0 0 -0.0127354 -0.0158806 -0.00982776 -0.0127354 -0.0202328 -0.0252708 -0.0127354 -0.0158806 -0.0252708 -0.0305066 0 0 -0.0158806 -0.018674 0 0 -0.018674 -0.0207738 -0.0158806 -0.018674 -0.0305066 -0.0356402 -0.018674 -0.0207738 -0.0356402 -0.0403612 -0.0202328 -0.0252708 -0.0300552 -0.0369524 -0.0252708 -0.0305066 -0.0369524 -0.043803 -0.0300552 -0.0369524 -0.0377472 -0.0469247 -0.0369524 -0.043803 -0.0469247 -0.0560972 -0.0305066 -0.0356402 -0.043803 -0.0509342 -0.0356402 -0.0403612 -0.0509342 -0.0583981 -0.043803 -0.0509342 -0.0560972 -0.0654252 -0.0509342 -0.0583981 -0.0654252 -0.0750778 0 0 -0.0207738 -0.0223819 0 0 -0.0223819 -0.0240612 -0.0207738 -0.0223819 -0.0403612 -0.0445983 -0.0223819 -0.0240612 -0.0445983 -0.048569 0 0 -0.0240612 -0.0262034 0 0 -0.0262034 -0.02861 -0.0240612 -0.0262034 -0.048569 -0.0525109 -0.0262034 -0.02861 -0.0525109 -0.0563085 -0.0403612 -0.0445983 -0.0583981 -0.0657808 -0.0445983 -0.048569 -0.0657808 -0.0724574 -0.0583981 -0.0657808 -0.0750778 -0.0847738 -0.0657808 -0.0724574 -0.0847738 -0.0937128 -0.048569 -0.0525109 -0.0724574 -0.0780226 -0.0525109 -0.0563085 -0.0780226 -0.0824648 -0.0724574 -0.0780226 -0.0937128 -0.101068 -0.0780226 -0.0824648 -0.101068 -0.106596 -0.0377472 -0.0469247 -0.0435767 -0.0549506 -0.0469247 -0.0560972 -0.0549506 -0.066863 -0.0435767 -0.0549506 -0.0488611 -0.0615427 -0.0549506 -0.066863 -0.0615427 -0.0751691 -0.0560972 -0.0654252 -0.066863 -0.0786813 -0.0654252 -0.0750778 -0.0786813 -0.0900616 -0.066863 -0.0786813 -0.0751691 -0.0889759 -0.0786813 -0.0900616 -0.0889759 -0.102103 -0.0488611 -0.0615427 -0.0535648 -0.0668636 -0.0615427 -0.0751691 -0.0668636 -0.0808547 -0.0535648 -0.0668636 -0.0566118 -0.0702023 -0.0668636 -0.0808547 -0.0702023 -0.0843549 -0.0751691 -0.0889759 -0.0808547 -0.0954736 -0.0889759 -0.102103 -0.0954736 -0.110205 -0.0808547 -0.0954736 -0.0843549 -0.099182 -0.0954736 -0.110205 -0.099182 -0.114861 -0.0750778 -0.0847738 -0.0900616 -0.100962 -0.0847738 -0.0937128 -0.100962 -0.111259 -0.0900616 -0.100962 -0.102103 -0.114225 -0.100962 -0.111259 -0.114225 -0.12561 -0.0937128 -0.101068 -0.111259 -0.120493 -0.101068 -0.106596 -0.120493 -0.128114 -0.111259 -0.120493 -0.12561 -0.136485 -0.120493 -0.128114 -0.136485 -0.146445 -0.102103 -0.114225 -0.110205 -0.124319 -0.114225 -0.12561 -0.124319 -0.13747 -0.110205 -0.124319 -0.114861 -0.130922 -0.124319 -0.13747 -0.130922 -0.146329 -0.12561 -0.136485 -0.13747 -0.149805 -0.136485 -0.146445 -0.149805 -0.161309 -0.13747 -0.149805 -0.146329 -0.160268 -0.149805 -0.161309 -0.160268 -0.17254 -0.00133554 -0.00349248 -0.00872763 -0.0113862 -0.00349248 -0.00667112 -0.0113862 -0.0144192 -0.00872763 -0.0113862 -0.0157402 -0.0195483 -0.0113862 -0.0144192 -0.0195483 -0.0234319 -0.00667112 -0.0111768 -0.0144192 -0.0183634 -0.0111768 -0.0170277 -0.0183634 -0.0236481 -0.0144192 -0.0183634 -0.0234319 -0.0272886 -0.0183634 -0.0236481 -0.0272886 -0.0315408 -0.0157402 -0.0195483 -0.0222197 -0.0265526 -0.0195483 -0.0234319 -0.0265526 -0.0311521 -0.0222197 -0.0265526 -0.0276469 -0.0322485 -0.0265526 -0.0311521 -0.0322485 -0.0370285 -0.0234319 -0.0272886 -0.0311521 -0.0357094 -0.0272886 -0.0315408 -0.0357094 -0.0399401 -0.0311521 -0.0357094 -0.0370285 -0.0420856 -0.0357094 -0.0399401 -0.0420856 -0.0472386 -0.0170277 -0.0242629 -0.0236481 -0.0302684 -0.0242629 -0.0331794 -0.0302684 -0.038072 -0.0236481 -0.0302684 -0.0315408 -0.036828 -0.0302684 -0.038072 -0.036828 -0.0434215 -0.0331794 -0.0440439 -0.038072 -0.0472745 -0.0440439 -0.0566118 -0.0472745 -0.0583643 -0.038072 -0.0472745 -0.0434215 -0.0512735 -0.0472745 -0.0583643 -0.0512735 -0.0606393 -0.0315408 -0.036828 -0.0399401 -0.044198 -0.036828 -0.0434215 -0.044198 -0.0493744 -0.0399401 -0.044198 -0.0472386 -0.0520602 -0.044198 -0.0493744 -0.0520602 -0.0566628 -0.0434215 -0.0512735 -0.0493744 -0.0560641 -0.0512735 -0.0606393 -0.0560641 -0.0642585 -0.0493744 -0.0560641 -0.0566628 -0.0619351 -0.0560641 -0.0642585 -0.0619351 -0.068622 -0.0276469 -0.0322485 -0.0323474 -0.0368431 -0.0322485 -0.0370285 -0.0368431 -0.0419232 -0.0323474 -0.0368431 -0.0383228 -0.041829 -0.0368431 -0.0419232 -0.041829 -0.0464425 -0.0370285 -0.0420856 -0.0419232 -0.0472658 -0.0420856 -0.0472386 -0.0472658 -0.0529131 -0.0419232 -0.0472658 -0.0464425 -0.0518957 -0.0472658 -0.0529131 -0.0518957 -0.0575956 -0.0383228 -0.041829 -0.0454396 -0.0485663 -0.041829 -0.0464425 -0.0485663 -0.0518219 -0.0454396 -0.0485663 -0.0516638 -0.0553162 -0.0485663 -0.0518219 -0.0553162 -0.0582494 -0.0464425 -0.0518957 -0.0518219 -0.0560194 -0.0518957 -0.0575956 -0.0560194 -0.0611383 -0.0518219 -0.0560194 -0.0582494 -0.060762 -0.0560194 -0.0611383 -0.060762 -0.0639481 -0.0472386 -0.0520602 -0.0529131 -0.0587147 -0.0520602 -0.0566628 -0.0587147 -0.0640315 -0.0529131 -0.0587147 -0.0575956 -0.0633829 -0.0587147 -0.0640315 -0.0633829 -0.069123 -0.0566628 -0.0619351 -0.0640315 -0.0686216 -0.0619351 -0.068622 -0.0686216 -0.0733029 -0.0640315 -0.0686216 -0.069123 -0.0740909 -0.0686216 -0.0733029 -0.0740909 -0.0778414 -0.0575956 -0.0633829 -0.0611383 -0.0664475 -0.0633829 -0.069123 -0.0664475 -0.0716359 -0.0611383 -0.0664475 -0.0639481 -0.0681979 -0.0664475 -0.0716359 -0.0681979 -0.0727945 -0.069123 -0.0740909 -0.0716359 -0.0766685 -0.0740909 -0.0778414 -0.0766685 -0.0808647 -0.0716359 -0.0766685 -0.0727945 -0.0772975 -0.0766685 -0.0808647 -0.0772975 -0.0817191 -0.0566118 -0.0702023 -0.0583643 -0.0714343 -0.0702023 -0.0843549 -0.0714343 -0.0859342 -0.0583643 -0.0714343 -0.0606393 -0.0721611 -0.0714343 -0.0859342 -0.0721611 -0.0860684 -0.0843549 -0.099182 -0.0859342 -0.101272 -0.099182 -0.114861 -0.101272 -0.117356 -0.0859342 -0.101272 -0.0860684 -0.101659 -0.101272 -0.117356 -0.101659 -0.117933 -0.0606393 -0.0721611 -0.0642585 -0.0740231 -0.0721611 -0.0860684 -0.0740231 -0.0858794 -0.0642585 -0.0740231 -0.068622 -0.0766913 -0.0740231 -0.0858794 -0.0766913 -0.0860447 -0.0860684 -0.101659 -0.0858794 -0.10004 -0.101659 -0.117933 -0.10004 -0.115699 -0.0858794 -0.10004 -0.0860447 -0.0972145 -0.10004 -0.115699 -0.0972145 -0.110626 -0.114861 -0.130922 -0.117356 -0.134175 -0.130922 -0.146329 -0.134175 -0.151002 -0.117356 -0.134175 -0.117933 -0.134464 -0.134175 -0.151002 -0.134464 -0.151155 -0.146329 -0.160268 -0.151002 -0.166476 -0.160268 -0.17254 -0.166476 -0.179602 -0.151002 -0.166476 -0.151155 -0.167338 -0.166476 -0.179602 -0.167338 -0.181736 -0.117933 -0.134464 -0.115699 -0.131685 -0.134464 -0.151155 -0.131685 -0.147568 -0.115699 -0.131685 -0.110626 -0