# vtk DataFile Version 3.0
#This file was generated by the deal.II library on 2021/4/23 at 0:45:38
ASCII
DATASET UNSTRUCTURED_GRID

FIELD FieldData 2
CYCLE 1 1 int
2
TIME 1 1 double
0.004
POINTS 240 double
-1 -1 0
-0.75 -1 0
-1 -0.75 0
-0.75 -0.75 0
-0.75 -1 0
-0.5 -1 0
-0.75 -0.75 0
-0.5 -0.75 0
-1 -0.75 0
-0.75 -0.75 0
-1 -0.5 0
-0.75 -0.5 0
-0.75 -0.75 0
-0.5 -0.75 0
-0.75 -0.5 0
-0.5 -0.5 0
-0.5 -1 0
-0.25 -1 0
-0.5 -0.75 0
-0.25 -0.75 0
-0.25 -1 0
0 -1 0
-0.25 -0.75 0
0 -0.75 0
-0.5 -0.75 0
-0.25 -0.75 0
-0.5 -0.5 0
-0.25 -0.5 0
-0.25 -0.75 0
0 -0.75 0
-0.25 -0.5 0
0 -0.5 0
-1 -0.5 0
-0.75 -0.5 0
-1 -0.25 0
-0.75 -0.25 0
-0.75 -0.5 0
-0.5 -0.5 0
-0.75 -0.25 0
-0.5 -0.25 0
-1 -0.25 0
-0.75 -0.25 0
-1 0 0
-0.75 0 0
-0.75 -0.25 0
-0.5 -0.25 0
-0.75 0 0
-0.5 0 0
-0.5 -0.5 0
-0.25 -0.5 0
-0.5 -0.25 0
-0.25 -0.25 0
-0.25 -0.5 0
0 -0.5 0
-0.25 -0.25 0
0 -0.25 0
-0.5 -0.25 0
-0.25 -0.25 0
-0.5 0 0
-0.25 0 0
-0.25 -0.25 0
0 -0.25 0
-0.25 0 0
0 0 0
0 -1 0
0.25 -1 0
0 -0.75 0
0.25 -0.75 0
0.25 -1 0
0.5 -1 0
0.25 -0.75 0
0.5 -0.75 0
0 -0.75 0
0.25 -0.75 0
0 -0.5 0
0.25 -0.5 0
0.25 -0.75 0
0.5 -0.75 0
0.25 -0.5 0
0.5 -0.5 0
0.5 -1 0
0.75 -1 0
0.5 -0.75 0
0.75 -0.75 0
0.75 -1 0
1 -1 0
0.75 -0.75 0
1 -0.75 0
0.5 -0.75 0
0.75 -0.75 0
0.5 -0.5 0
0.75 -0.5 0
0.75 -0.75 0
1 -0.75 0
0.75 -0.5 0
1 -0.5 0
0 -0.5 0
0.25 -0.5 0
0 -0.25 0
0.25 -0.25 0
0.25 -0.5 0
0.5 -0.5 0
0.25 -0.25 0
0.5 -0.25 0
0 -0.25 0
0.25 -0.25 0
0 0 0
0.25 0 0
0.25 -0.25 0
0.5 -0.25 0
0.25 0 0
0.5 0 0
-1 0 0
-0.75 0 0
-1 0.25 0
-0.75 0.25 0
-0.75 0 0
-0.5 0 0
-0.75 0.25 0
-0.5 0.25 0
-1 0.25 0
-0.75 0.25 0
-1 0.5 0
-0.75 0.5 0
-0.75 0.25 0
-0.5 0.25 0
-0.75 0.5 0
-0.5 0.5 0
-0.5 0 0
-0.25 0 0
-0.5 0.25 0
-0.25 0.25 0
-0.25 0 0
0 0 0
-0.25 0.25 0
0 0.25 0
-0.5 0.25 0
-0.25 0.25 0
-0.5 0.5 0
-0.25 0.5 0
-0.25 0.25 0
0 0.25 0
-0.25 0.5 0
0 0.5 0
-1 0.5 0
-0.75 0.5 0
-1 0.75 0
-0.75 0.75 0
-0.75 0.5 0
-0.5 0.5 0
-0.75 0.75 0
-0.5 0.75 0
-1 0.75 0
-0.75 0.75 0
-1 1 0
-0.75 1 0
-0.75 0.75 0
-0.5 0.75 0
-0.75 1 0
-0.5 1 0
-0.5 0.5 0
-0.25 0.5 0
-0.5 0.75 0
-0.25 0.75 0
-0.25 0.5 0
0 0.5 0
-0.25 0.75 0
0 0.75 0
-0.5 0.75 0
-0.25 0.75 0
-0.5 1 0
-0.25 1 0
-0.25 0.75 0
0 0.75 0
-0.25 1 0
0 1 0
0.5 -0.5 0
0.625 -0.5 0
0.5 -0.375 0
0.625 -0.375 0
0.625 -0.5 0
0.75 -0.5 0
0.625 -0.375 0
0.75 -0.375 0
0.5 -0.375 0
0.625 -0.375 0
0.5 -0.25 0
0.625 -0.25 0
0.625 -0.375 0
0.75 -0.375 0
0.625 -0.25 0
0.75 -0.25 0
0.75 -0.5 0
0.875 -0.5 0
0.75 -0.375 0
0.875 -0.375 0
0.875 -0.5 0
1 -0.5 0
0.875 -0.375 0
1 -0.375 0
0.75 -0.375 0
0.875 -0.375 0
0.75 -0.25 0
0.875 -0.25 0
0.875 -0.375 0
1 -0.375 0
0.875 -0.25 0
1 -0.25 0
0.5 -0.25 0
0.625 -0.25 0
0.5 -0.125 0
0.625 -0.125 0
0.625 -0.25 0
0.75 -0.25 0
0.625 -0.125 0
0.75 -0.125 0
0.5 -0.125 0
0.625 -0.125 0
0.5 0 0
0.625 0 0
0.625 -0.125 0
0.75 -0.125 0
0.625 0 0
0.75 0 0
0.75 -0.25 0
0.875 -0.25 0
0.75 -0.125 0
0.875 -0.125 0
0.875 -0.25 0
1 -0.25 0
0.875 -0.125 0
1 -0.125 0
0.75 -0.125 0
0.875 -0.125 0
0.75 0 0
0.875 0 0
0.875 -0.125 0
1 -0.125 0
0.875 0 0
1 0 0

CELLS 60 300
4	0	1	3	2
4	4	5	7	6
4	8	9	11	10
4	12	13	15	14
4	16	17	19	18
4	20	21	23	22
4	24	25	27	26
4	28	29	31	30
4	32	33	35	34
4	36	37	39	38
4	40	41	43	42
4	44	45	47	46
4	48	49	51	50
4	52	53	55	54
4	56	57	59	58
4	60	61	63	62
4	64	65	67	66
4	68	69	71	70
4	72	73	75	74
4	76	77	79	78
4	80	81	83	82
4	84	85	87	86
4	88	89	91	90
4	92	93	95	94
4	96	97	99	98
4	100	101	103	102
4	104	105	107	106
4	108	109	111	110
4	112	113	115	114
4	116	117	119	118
4	120	121	123	122
4	124	125	127	126
4	128	129	131	130
4	132	133	135	134
4	136	137	139	138
4	140	141	143	142
4	144	145	147	146
4	148	149	151	150
4	152	153	155	154
4	156	157	159	158
4	160	161	163	162
4	164	165	167	166
4	168	169	171	170
4	172	173	175	174
4	176	177	179	178
4	180	181	183	182
4	184	185	187	186
4	188	189	191	190
4	192	193	195	194
4	196	197	199	198
4	200	201	203	202
4	204	205	207	206
4	208	209	211	210
4	212	213	215	214
4	216	217	219	218
4	220	221	223	222
4	224	225	227	226
4	228	229	231	230
4	232	233	235	234
4	236	237	239	238

CELL_TYPES 60
 9 9 9 9 9 9 9 9 9 9 9 9 9 9 9 9 9 9 9 9 9 9 9 9 9 9 9 9 9 9 9 9 9 9 9 9 9 9 9 9 9 9 9 9 9 9 9 9 9 9 9 9 9 9 9 9 9 9 9 9
POINT_DATA 240
SCALARS U double 1
LOOKUP_TABLE default
0 0 0 4.99547e-08 0 0 4.99547e-08 -2.27915e-07 0 4.99547e-08 0 -2.05863e-07 4.99547e-08 -2.27915e-07 -2.05863e-07 9.60178e-07 0 0 -2.27915e-07 9.89484e-07 0 0 9.89484e-07 -4.28275e-06 -2.27915e-07 9.89484e-07 9.60178e-07 -4.27163e-06 9.89484e-07 -4.28275e-06 -4.27163e-06 1.89549e-05 0 -2.05863e-07 0 -5.90519e-07 -2.05863e-07 9.60178e-07 -5.90519e-07 2.71817e-06 0 -5.90519e-07 0 1.00887e-08 -5.90519e-07 2.71817e-06 1.00887e-08 -3.18992e-08 9.60178e-07 -4.27163e-06 2.71817e-06 -1.1922e-05 -4.27163e-06 1.89549e-05 -1.1922e-05 5.21659e-05 2.71817e-06 -1.1922e-05 -3.18992e-08 7.01143e-08 -1.1922e-05 5.21659e-05 7.01143e-08 0 0 0 -4.28275e-06 1.85109e-05 0 0 1.85109e-05 -7.99688e-05 -4.28275e-06 1.85109e-05 1.89549e-05 -8.40149e-05 1.85109e-05 -7.99688e-05 -8.40149e-05 0.000372322 0 0 -7.99688e-05 -0.000216427 0 0 -0.000216427 0 -7.99688e-05 -0.000216427 0.000372322 0.000997622 -0.000216427 0 0.000997622 0 1.89549e-05 -8.40149e-05 5.21659e-05 -0.000228541 -8.40149e-05 0.000372322 -0.000228541 0.00100127 5.21659e-05 -0.000228541 0 0 -0.000228541 0.00100127 0 0 0 1.00887e-08 0 -2.3722e-09 1.00887e-08 -3.18992e-08 -2.3722e-09 7.41663e-09 0 -2.3722e-09 0 5.55952e-10 -2.3722e-09 7.41663e-09 5.55952e-10 -1.71932e-09 -3.18992e-08 7.01143e-08 7.41663e-09 -1.60862e-08 7.01143e-08 0 -1.60862e-08 0 7.41663e-09 -1.60862e-08 -1.71932e-09 3.68151e-09 -1.60862e-08 0 3.68151e-09 0 0 5.55952e-10 0 -1.23493e-10 5.55952e-10 -1.71932e-09 -1.23493e-10 3.79161e-10 0 -1.23493e-10 0 0 -1.23493e-10 3.79161e-10 0 0 -1.71932e-09 3.68151e-09 3.79161e-10 -8.02551e-10 3.68151e-09 0 -8.02551e-10 0 3.79161e-10 -8.02551e-10 0 0 -8.02551e-10 0 0 0 0.000372322 0.000684972 0.000686794 0.00240825 0.000684972 0.000997622 0.00240825 0.00204925 0.000686794 0.00240825 0.00100127 0.00204871 0.00240825 0.00204925 0.00204871 0.00191152 0.000997622 0.000498811 0.00204925 0.00253089 0.000498811 0 0.00253089 0 0.00204925 0.00253089 0.00191152 0.00217999 0.00253089 0 0.00217999 0 0.00100127 0.00204871 0.000500633 0.00253066 0.00204871 0.00191152 0.00253066 0.00218003 0.000500633 0.00253066 0 0 0.00253066 0.00218003 0 0 0.00191152 0.00217999 0.00218003 0.00259506 0.00217999 0 0.00259506 0 0.00218003 0.00259506 0 0 0.00259506 0 0 0 
