<?xml version="1.0" ?> 
<!-- 
# vtk DataFile Version 3.0
#This file was generated by the deal.II library on 21:42:02 at 2021/4/29
-->
<VTKFile type="UnstructuredGrid" version="0.1" byte_order="LittleEndian">
<UnstructuredGrid>
<Piece NumberOfPoints="65536" NumberOfCells="16384" >
  <Points>
    <DataArray type="Float32" NumberOfComponents="3" format="ascii">
-1 -1 0
-0.984375 -1 0
-1 -0.984375 0
-0.984375 -0.984375 0
-0.984375 -1 0
-0.96875 -1 0
-0.984375 -0.984375 0
-0.96875 -0.984375 0
-1 -0.984375 0
-0.984375 -0.984375 0
-1 -0.96875 0
-0.984375 -0.96875 0
-0.984375 -0.984375 0
-0.96875 -0.984375 0
-0.984375 -0.96875 0
-0.96875 -0.96875 0
-0.96875 -1 0
-0.953125 -1 0
-0.96875 -0.984375 0
-0.953125 -0.984375 0
-0.953125 -1 0
-0.9375 -1 0
-0.953125 -0.984375 0
-0.9375 -0.984375 0
-0.96875 -0.984375 0
-0.953125 -0.984375 0
-0.96875 -0.96875 0
-0.953125 -0.96875 0
-0.953125 -0.984375 0
-0.9375 -0.984375 0
-0.953125 -0.96875 0
-0.9375 -0.96875 0
-1 -0.96875 0
-0.984375 -0.96875 0
-1 -0.953125 0
-0.984375 -0.953125 0
-0.984375 -0.96875 0
-0.96875 -0.96875 0
-0.984375 -0.953125 0
-0.96875 -0.953125 0
-1 -0.953125 0
-0.984375 -0.953125 0
-1 -0.9375 0
-0.984375 -0.9375 0
-0.984375 -0.953125 0
-0.96875 -0.953125 0
-0.984375 -0.9375 0
-0.96875 -0.9375 0
-0.96875 -0.96875 0
-0.953125 -0.96875 0
-0.96875 -0.953125 0
-0.953125 -0.953125 0
-0.953125 -0.96875 0
-0.9375 -0.96875 0
-0.953125 -0.953125 0
-0.9375 -0.953125 0
-0.96875 -0.953125 0
-0.953125 -0.953125 0
-0.96875 -0.9375 0
-0.953125 -0.9375 0
-0.953125 -0.953125 0
-0.9375 -0.953125 0
-0.953125 -0.9375 0
-0.9375 -0.9375 0
-0.9375 -1 0
-0.921875 -1 0
-0.9375 -0.984375 0
-0.921875 -0.984375 0
-0.921875 -1 0
-0.90625 -1 0
-0.921875 -0.984375 0
-0.90625 -0.984375 0
-0.9375 -0.984375 0
-0.921875 -0.984375 0
-0.9375 -0.96875 0
-0.921875 -0.96875 0
-0.921875 -0.984375 0
-0.90625 -0.984375 0
-0.921875 -0.96875 0
-0.90625 -0.96875 0
-0.90625 -1 0
-0.890625 -1 0
-0.90625 -0.984375 0
-0.890625 -0.984375 0
-0.890625 -1 0
-0.875 -1 0
-0.890625 -0.984375 0
-0.875 -0.984375 0
-0.90625 -0.984375 0
-0.890625 -0.984375 0
-0.90625 -0.96875 0
-0.890625 -0.96875 0
-0.890625 -0.984375 0
-0.875 -0.984375 0
-0.890625 -0.96875 0
-0.875 -0.96875 0
-0.9375 -0.96875 0
-0.921875 -0.96875 0
-0.9375 -0.953125 0
-0.921875 -0.953125 0
-0.921875 -0.96875 0
-0.90625 -0.96875 0
-0.921875 -0.953125 0
-0.90625 -0.953125 0
-0.9375 -0.953125 0
-0.921875 -0.953125 0
-0.9375 -0.9375 0
-0.921875 -0.9375 0
-0.921875 -0.953125 0
-0.90625 -0.953125 0
-0.921875 -0.9375 0
-0.90625 -0.9375 0
-0.90625 -0.96875 0
-0.890625 -0.96875 0
-0.90625 -0.953125 0
-0.890625 -0.953125 0
-0.890625 -0.96875 0
-0.875 -0.96875 0
-0.890625 -0.953125 0
-0.875 -0.953125 0
-0.90625 -0.953125 0
-0.890625 -0.953125 0
-0.90625 -0.9375 0
-0.890625 -0.9375 0
-0.890625 -0.953125 0
-0.875 -0.953125 0
-0.890625 -0.9375 0
-0.875 -0.9375 0
-1 -0.9375 0
-0.984375 -0.9375 0
-1 -0.921875 0
-0.984375 -0.921875 0
-0.984375 -0.9375 0
-0.96875 -0.9375 0
-0.984375 -0.921875 0
-0.96875 -0.921875 0
-1 -0.921875 0
-0.984375 -0.921875 0
-1 -0.90625 0
-0.984375 -0.90625 0
-0.984375 -0.921875 0
-0.96875 -0.921875 0
-0.984375 -0.90625 0
-0.96875 -0.90625 0
-0.96875 -0.9375 0
-0.953125 -0.9375 0
-0.96875 -0.921875 0
-0.953125 -0.921875 0
-0.953125 -0.9375 0
-0.9375 -0.9375 0
-0.953125 -0.921875 0
-0.9375 -0.921875 0
-0.96875 -0.921875 0
-0.953125 -0.921875 0
-0.96875 -0.90625 0
-0.953125 -0.90625 0
-0.953125 -0.921875 0
-0.9375 -0.921875 0
-0.953125 -0.90625 0
-0.9375 -0.90625 0
-1 -0.90625 0
-0.984375 -0.90625 0
-1 -0.890625 0
-0.984375 -0.890625 0
-0.984375 -0.90625 0
-0.96875 -0.90625 0
-0.984375 -0.890625 0
-0.96875 -0.890625 0
-1 -0.890625 0
-0.984375 -0.890625 0
-1 -0.875 0
-0.984375 -0.875 0
-0.984375 -0.890625 0
-0.96875 -0.890625 0
-0.984375 -0.875 0
-0.96875 -0.875 0
-0.96875 -0.90625 0
-0.953125 -0.90625 0
-0.96875 -0.890625 0
-0.953125 -0.890625 0
-0.953125 -0.90625 0
-0.9375 -0.90625 0
-0.953125 -0.890625 0
-0.9375 -0.890625 0
-0.96875 -0.890625 0
-0.953125 -0.890625 0
-0.96875 -0.875 0
-0.953125 -0.875 0
-0.953125 -0.890625 0
-0.9375 -0.890625 0
-0.953125 -0.875 0
-0.9375 -0.875 0
-0.9375 -0.9375 0
-0.921875 -0.9375 0
-0.9375 -0.921875 0
-0.921875 -0.921875 0
-0.921875 -0.9375 0
-0.90625 -0.9375 0
-0.921875 -0.921875 0
-0.90625 -0.921875 0
-0.9375 -0.921875 0
-0.921875 -0.921875 0
-0.9375 -0.90625 0
-0.921875 -0.90625 0
-0.921875 -0.921875 0
-0.90625 -0.921875 0
-0.921875 -0.90625 0
-0.90625 -0.90625 0
-0.90625 -0.9375 0
-0.890625 -0.9375 0
-0.90625 -0.921875 0
-0.890625 -0.921875 0
-0.890625 -0.9375 0
-0.875 -0.9375 0
-0.890625 -0.921875 0
-0.875 -0.921875 0
-0.90625 -0.921875 0
-0.890625 -0.921875 0
-0.90625 -0.90625 0
-0.890625 -0.90625 0
-0.890625 -0.921875 0
-0.875 -0.921875 0
-0.890625 -0.90625 0
-0.875 -0.90625 0
-0.9375 -0.90625 0
-0.921875 -0.90625 0
-0.9375 -0.890625 0
-0.921875 -0.890625 0
-0.921875 -0.90625 0
-0.90625 -0.90625 0
-0.921875 -0.890625 0
-0.90625 -0.890625 0
-0.9375 -0.890625 0
-0.921875 -0.890625 0
-0.9375 -0.875 0
-0.921875 -0.875 0
-0.921875 -0.890625 0
-0.90625 -0.890625 0
-0.921875 -0.875 0
-0.90625 -0.875 0
-0.90625 -0.90625 0
-0.890625 -0.90625 0
-0.90625 -0.890625 0
-0.890625 -0.890625 0
-0.890625 -0.90625 0
-0.875 -0.90625 0
-0.890625 -0.890625 0
-0.875 -0.890625 0
-0.90625 -0.890625 0
-0.890625 -0.890625 0
-0.90625 -0.875 0
-0.890625 -0.875 0
-0.890625 -0.890625 0
-0.875 -0.890625 0
-0.890625 -0.875 0
-0.875 -0.875 0
-0.875 -1 0
-0.859375 -1 0
-0.875 -0.984375 0
-0.859375 -0.984375 0
-0.859375 -1 0
-0.84375 -1 0
-0.859375 -0.984375 0
-0.84375 -0.984375 0
-0.875 -0.984375 0
-0.859375 -0.984375 0
-0.875 -0.96875 0
-0.859375 -0.96875 0
-0.859375 -0.984375 0
-0.84375 -0.984375 0
-0.859375 -0.96875 0
-0.84375 -0.96875 0
-0.84375 -1 0
-0.828125 -1 0
-0.84375 -0.984375 0
-0.828125 -0.984375 0
-0.828125 -1 0
-0.8125 -1 0
-0.828125 -0.984375 0
-0.8125 -0.984375 0
-0.84375 -0.984375 0
-0.828125 -0.984375 0
-0.84375 -0.96875 0
-0.828125 -0.96875 0
-0.828125 -0.984375 0
-0.8125 -0.984375 0
-0.828125 -0.96875 0
-0.8125 -0.96875 0
-0.875 -0.96875 0
-0.859375 -0.96875 0
-0.875 -0.953125 0
-0.859375 -0.953125 0
-0.859375 -0.96875 0
-0.84375 -0.96875 0
-0.859375 -0.953125 0
-0.84375 -0.953125 0
-0.875 -0.953125 0
-0.859375 -0.953125 0
-0.875 -0.9375 0
-0.859375 -0.9375 0
-0.859375 -0.953125 0
-0.84375 -0.953125 0
-0.859375 -0.9375 0
-0.84375 -0.9375 0
-0.84375 -0.96875 0
-0.828125 -0.96875 0
-0.84375 -0.953125 0
-0.828125 -0.953125 0
-0.828125 -0.96875 0
-0.8125 -0.96875 0
-0.828125 -0.953125 0
-0.8125 -0.953125 0
-0.84375 -0.953125 0
-0.828125 -0.953125 0
-0.84375 -0.9375 0
-0.828125 -0.9375 0
-0.828125 -0.953125 0
-0.8125 -0.953125 0
-0.828125 -0.9375 0
-0.8125 -0.9375 0
-0.8125 -1 0
-0.796875 -1 0
-0.8125 -0.984375 0
-0.796875 -0.984375 0
-0.796875 -1 0
-0.78125 -1 0
-0.796875 -0.984375 0
-0.78125 -0.984375 0
-0.8125 -0.984375 0
-0.796875 -0.984375 0
-0.8125 -0.96875 0
-0.796875 -0.96875 0
-0.796875 -0.984375 0
-0.78125 -0.984375 0
-0.796875 -0.96875 0
-0.78125 -0.96875 0
-0.78125 -1 0
-0.765625 -1 0
-0.78125 -0.984375 0
-0.765625 -0.984375 0
-0.765625 -1 0
-0.75 -1 0
-0.765625 -0.984375 0
-0.75 -0.984375 0
-0.78125 -0.984375 0
-0.765625 -0.984375 0
-0.78125 -0.96875 0
-0.765625 -0.96875 0
-0.765625 -0.984375 0
-0.75 -0.984375 0
-0.765625 -0.96875 0
-0.75 -0.96875 0
-0.8125 -0.96875 0
-0.796875 -0.96875 0
-0.8125 -0.953125 0
-0.796875 -0.953125 0
-0.796875 -0.96875 0
-0.78125 -0.96875 0
-0.796875 -0.953125 0
-0.78125 -0.953125 0
-0.8125 -0.953125 0
-0.796875 -0.953125 0
-0.8125 -0.9375 0
-0.796875 -0.9375 0
-0.796875 -0.953125 0
-0.78125 -0.953125 0
-0.796875 -0.9375 0
-0.78125 -0.9375 0
-0.78125 -0.96875 0
-0.765625 -0.96875 0
-0.78125 -0.953125 0
-0.765625 -0.953125 0
-0.765625 -0.96875 0
-0.75 -0.96875 0
-0.765625 -0.953125 0
-0.75 -0.953125 0
-0.78125 -0.953125 0
-0.765625 -0.953125 0
-0.78125 -0.9375 0
-0.765625 -0.9375 0
-0.765625 -0.953125 0
-0.75 -0.953125 0
-0.765625 -0.9375 0
-0.75 -0.9375 0
-0.875 -0.9375 0
-0.859375 -0.9375 0
-0.875 -0.921875 0
-0.859375 -0.921875 0
-0.859375 -0.9375 0
-0.84375 -0.9375 0
-0.859375 -0.921875 0
-0.84375 -0.921875 0
-0.875 -0.921875 0
-0.859375 -0.921875 0
-0.875 -0.90625 0
-0.859375 -0.90625 0
-0.859375 -0.921875 0
-0.84375 -0.921875 0
-0.859375 -0.90625 0
-0.84375 -0.90625 0
-0.84375 -0.9375 0
-0.828125 -0.9375 0
-0.84375 -0.921875 0
-0.828125 -0.921875 0
-0.828125 -0.9375 0
-0.8125 -0.9375 0
-0.828125 -0.921875 0
-0.8125 -0.921875 0
-0.84375 -0.921875 0
-0.828125 -0.921875 0
-0.84375 -0.90625 0
-0.828125 -0.90625 0
-0.828125 -0.921875 0
-0.8125 -0.921875 0
-0.828125 -0.90625 0
-0.8125 -0.90625 0
-0.875 -0.90625 0
-0.859375 -0.90625 0
-0.875 -0.890625 0
-0.859375 -0.890625 0
-0.859375 -0.90625 0
-0.84375 -0.90625 0
-0.859375 -0.890625 0
-0.84375 -0.890625 0
-0.875 -0.890625 0
-0.859375 -0.890625 0
-0.875 -0.875 0
-0.859375 -0.875 0
-0.859375 -0.890625 0
-0.84375 -0.890625 0
-0.859375 -0.875 0
-0.84375 -0.875 0
-0.84375 -0.90625 0
-0.828125 -0.90625 0
-0.84375 -0.890625 0
-0.828125 -0.890625 0
-0.828125 -0.90625 0
-0.8125 -0.90625 0
-0.828125 -0.890625 0
-0.8125 -0.890625 0
-0.84375 -0.890625 0
-0.828125 -0.890625 0
-0.84375 -0.875 0
-0.828125 -0.875 0
-0.828125 -0.890625 0
-0.8125 -0.890625 0
-0.828125 -0.875 0
-0.8125 -0.875 0
-0.8125 -0.9375 0
-0.796875 -0.9375 0
-0.8125 -0.921875 0
-0.796875 -0.921875 0
-0.796875 -0.9375 0
-0.78125 -0.9375 0
-0.796875 -0.921875 0
-0.78125 -0.921875 0
-0.8125 -0.921875 0
-0.796875 -0.921875 0
-0.8125 -0.90625 0
-0.796875 -0.90625 0
-0.796875 -0.921875 0
-0.78125 -0.921875 0
-0.796875 -0.90625 0
-0.78125 -0.90625 0
-0.78125 -0.9375 0
-0.765625 -0.9375 0
-0.78125 -0.921875 0
-0.765625 -0.921875 0
-0.765625 -0.9375 0
-0.75 -0.9375 0
-0.765625 -0.921875 0
-0.75 -0.921875 0
-0.78125 -0.921875 0
-0.765625 -0.921875 0
-0.78125 -0.90625 0
-0.765625 -0.90625 0
-0.765625 -0.921875 0
-0.75 -0.921875 0
-0.765625 -0.90625 0
-0.75 -0.90625 0
-0.8125 -0.90625 0
-0.796875 -0.90625 0
-0.8125 -0.890625 0
-0.796875 -0.890625 0
-0.796875 -0.90625 0
[...]
  <PointData Scalars="scalars">
    <DataArray type="Float32" Name="U" format="ascii">
0 0 0 2.9109e-07 0 0 2.9109e-07 5.62322e-07 0 2.9109e-07 0 1.09412e-06 2.9109e-07 5.62322e-07 1.09412e-06 2.11327e-06 0 0 5.62322e-07 7.96073e-07 0 0 7.96073e-07 9.78837e-07 5.62322e-07 7.96073e-07 2.11327e-06 2.99096e-06 7.96073e-07 9.78837e-07 2.99096e-06 3.67628e-06 0 1.09412e-06 0 3.63762e-06 1.09412e-06 2.11327e-06 3.63762e-06 7.02586e-06 0 3.63762e-06 0 1.12712e-05 3.63762e-06 7.02586e-06 1.12712e-05 2.17741e-05 2.11327e-06 2.99096e-06 7.02586e-06 9.94345e-06 2.99096e-06 3.67628e-06 9.94345e-06 1.2221e-05 7.02586e-06 9.94345e-06 2.17741e-05 3.08265e-05 9.94345e-06 1.2221e-05 3.08265e-05 3.79045e-05 0 0 9.78837e-07 1.10249e-06 0 0 1.10249e-06 1.16474e-06 9.78837e-07 1.10249e-06 3.67628e-06 4.13869e-06 1.10249e-06 1.16474e-06 4.13869e-06 4.36981e-06 0 0 1.16474e-06 1.16886e-06 0 0 1.16886e-06 1.12261e-06 1.16474e-06 1.16886e-06 4.36981e-06 4.38212e-06 1.16886e-06 1.12261e-06 4.38212e-06 4.20524e-06 3.67628e-06 4.13869e-06 1.2221e-05 1.37569e-05 4.13869e-06 4.36981e-06 1.37569e-05 1.45232e-05 1.2221e-05 1.37569e-05 3.79045e-05 4.2692e-05 1.37569e-05 1.45232e-05 4.2692e-05 4.50987e-05 4.36981e-06 4.38212e-06 1.45232e-05 1.45614e-05 4.38212e-06 4.20524e-06 1.45614e-05 1.397e-05 1.45232e-05 1.45614e-05 4.50987e-05 4.5249e-05 1.45614e-05 1.397e-05 4.5249e-05 4.34433e-05 0 1.12712e-05 0 3.24677e-05 1.12712e-05 2.17741e-05 3.24677e-05 6.27546e-05 0 3.24677e-05 0 8.63581e-05 3.24677e-05 6.27546e-05 8.63581e-05 0.000167069 2.17741e-05 3.08265e-05 6.27546e-05 8.89188e-05 3.08265e-05 3.79045e-05 8.89188e-05 0.000109461 6.27546e-05 8.89188e-05 0.000167069 0.000237081 8.89188e-05 0.000109461 0.000237081 0.000292452 0 8.63581e-05 0 0.000210419 8.63581e-05 0.000167069 0.000210419 0.000407665 0 0.000210419 0 0.000465604 0.000210419 0.000407665 0.000465604 0.000903967 0.000167069 0.000237081 0.000407665 0.000579873 0.000237081 0.000292452 0.000579873 0.000717621 0.000407665 0.000579873 0.000903967 0.00129028 0.000579873 0.000717621 0.00129028 0.00160435 3.79045e-05 4.2692e-05 0.000109461 0.000123462 4.2692e-05 4.50987e-05 0.000123462 0.000130641 0.000109461 0.000123462 0.000292452 0.000330707 0.000123462 0.000130641 0.000330707 0.000350991 4.50987e-05 4.5249e-05 0.000130641 0.000131322 4.5249e-05 4.34433e-05 0.000131322 0.00012634 0.000130641 0.000131322 0.000350991 0.000354023 0.000131322 0.00012634 0.000354023 0.000341856 0.000292452 0.000330707 0.000717621 0.000814762 0.000330707 0.000350991 0.000814762 0.00086883 0.000717621 0.000814762 0.00160435 0.00183223 0.000814762 0.00086883 0.00183223 0.00196729 0.000350991 0.000354023 0.00086883 0.000881012 0.000354023 0.000341856 0.000881012 0.000855693 0.00086883 0.000881012 0.00196729 0.00201033 0.000881012 0.000855693 0.00201033 0.00196904 0 0 1.12261e-06 1.03687e-06 0 0 1.03687e-06 9.23992e-07 1.12261e-06 1.03687e-06 4.20524e-06 3.88038e-06 1.03687e-06 9.23992e-07 3.88038e-06 3.45426e-06 0 0 9.23992e-07 7.9627e-07 0 0 7.9627e-07 6.64704e-07 9.23992e-07 7.9627e-07 3.45426e-06 2.97326e-06 7.9627e-07 6.64704e-07 2.97326e-06 2.47878e-06 4.20524e-06 3.88038e-06 1.397e-05 1.28865e-05 3.88038e-06 3.45426e-06 1.28865e-05 1.14664e-05 1.397e-05 1.28865e-05 4.34433e-05 4.01036e-05 1.28865e-05 1.14664e-05 4.01036e-05 3.57098e-05 3.45426e-06 2.97326e-06 1.14664e-05 9.86437e-06 2.97326e-06 2.47878e-06 9.86437e-06 8.21834e-06 1.14664e-05 9.86437e-06 3.57098e-05 3.0741e-05 9.86437e-06 8.21834e-06 3.0741e-05 2.56261e-05 0 0 6.64704e-07 5.38166e-07 0 0 5.38166e-07 4.23007e-07 6.64704e-07 5.38166e-07 2.47878e-06 2.00406e-06 5.38166e-07 4.23007e-07 2.00406e-06 1.57276e-06 0 0 4.23007e-07 3.23048e-07 0 0 3.23048e-07 2.3987e-07 4.23007e-07 3.23048e-07 1.57276e-06 1.19897e-06 3.23048e-07 2.3987e-07 1.19897e-06 8.88395e-07 2.47878e-06 2.00406e-06 8.21834e-06 6.63904e-06 2.00406e-06 1.57276e-06 6.63904e-06 5.20519e-06 8.21834e-06 6.63904e-06 2.56261e-05 2.0711e-05 6.63904e-06 5.20519e-06 2.0711e-05 1.62429e-05 1.57276e-06 1.19897e-06 5.20519e-06 3.96352e-06 1.19897e-06 8.88395e-07 3.96352e-06 2.93273e-06 5.20519e-06 3.96352e-06 1.62429e-05 1.23699e-05 3.96352e-06 2.93273e-06 1.23699e-05 9.15211e-06 4.34433e-05 4.01036e-05 0.00012634 0.000116879 4.01036e-05 3.57098e-05 0.000116879 0.000104305 0.00012634 0.000116879 0.000341856 0.000317509 0.000116879 0.000104305 0.000317509 0.000284519 3.57098e-05 3.0741e-05 0.000104305 8.99932e-05 3.0741e-05 2.56261e-05 8.99932e-05 7.51851e-05 0.000104305 8.99932e-05 0.000284519 0.000246513 8.99932e-05 7.51851e-05 0.000246513 0.000206819 0.000341856 0.000317509 0.000855693 0.000799682 0.000317509 0.000284519 0.000799682 0.000721232 0.000855693 0.000799682 0.00196904 0.00185666 0.000799682 0.000721232 0.00185666 0.00169016 0.000284519 0.000246513 0.000721232 0.000629027 0.000246513 0.000206819 0.000629027 0.000531262 0.000721232 0.000629027 0.00169016 0.00148816 0.000629027 0.000531262 0.00148816 0.00126894 2.56261e-05 2.0711e-05 7.51851e-05 6.08937e-05 2.0711e-05 1.62429e-05 6.08937e-05 4.78518e-05 7.51851e-05 6.08937e-05 0.000206819 0.000168203 6.08937e-05 4.78518e-05 0.000168203 0.000132712 1.62429e-05 1.23699e-05 4.78518e-05 3.65077e-05 1.23699e-05 9.15211e-06 3.65077e-05 2.70539e-05 4.78518e-05 3.65077e-05 0.000132712 0.000101639 3.65077e-05 2.70539e-05 0.000101639 7.55902e-05 0.000206819 0.000168203 0.000531262 0.000434928 0.000168203 0.000132712 0.000434928 0.000345379 0.000531262 0.000434928 0.00126894 0.00104876 0.000434928 0.000345379 0.00104876 0.000840613 0.000132712 0.000101639 0.000345379 0.000266165 0.000101639 7.55902e-05 0.000266165 0.000199127 0.000345379 0.000266165 0.000840613 0.000653684 0.000266165 0.000199127 0.000653684 0.000493281 0 0.000465604 0 0.000927072 0.000465604 0.000903967 0.000927072 0.0018052 0 0.000927072 0 0.00164663 0.000927072 0.0018052 0.00164663 0.00321881 0.000903967 0.00129028 0.0018052 0.00258909 0.00129028 0.00160435 0.00258909 0.00324042 0.0018052 0.00258909 0.00321881 0.00464592 0.00258909 0.00324042 0.00464592 0.00586511 0 0.00164663 0 0.00259325 0.00164663 0.00321881 0.00259325 0.00509357 0 0.00259325 0 0.00362567 0.00259325 0.00509357 0.00362567 0.00715891 0.00321881 0.00464592 0.00509357 0.00740975 0.00464592 0.00586511 0.00740975 0.00945481 0.00509357 0.00740975 0.00715891 0.010505 0.00740975 0.00945481 0.010505 0.0135655 0.00160435 0.00183223 0.00324042 0.00373084 0.00183223 0.00196729 0.00373084 0.00404398 0.00324042 0.00373084 0.00586511 0.00682534 0.00373084 0.00404398 0.00682534 0.00749108 0.00196729 0.00201033 0.00404398 0.00417658 0.00201033 0.00196904 0.00417658 0.00413827 0.00404398 0.00417658 0.00749108 0.00784547 0.00417658 0.00413827 0.00784547 0.00789205 0.00586511 0.00682534 0.00945481 0.0111498 0.00682534 0.00749108 0.0111498 0.012429 0.00945481 0.0111498 0.0135655 0.0162397 0.0111498 0.012429 0.0162397 0.0184283 0.00749108 0.00784547 0.012429 0.0132459 0.00784547 0.00789205 0.0132459 0.0135795 0.012429 0.0132459 0.0184283 0.0200414 0.0132459 0.0135795 0.0200414 0.0210085 0 0.00362567 0 0.00457216 0.00362567 0.00715891 0.00457216 0.00906918 0 0.00457216 0 0.00538807 0.00457216 0.00906918 0.00538807 0.0107129 0.00715891 0.010505 0.00906918 0.0134114 0.010505 0.0135655 0.0134114 0.0175104 0.00906918 0.0134114 0.0107129 0.0159103 0.0134114 0.0175104 0.0159103 0.0209126 0 0.00538807 0 0.00618123 0.00538807 0.0107129 0.00618123 0.012292 0 0.00618123 0 0.00697997 0.00618123 0.012292 0.00697997 0.0138915 0.0107129 0.0159103 0.012292 0.0182652 0.0159103 0.0209126 0.0182652 0.0240392 0.012292 0.0182652 0.0138915 0.0206631 0.0182652 0.0240392 0.0206631 0.0272207 0.0135655 0.0162397 0.0175104 0.0212652 0.0162397 0.0184283 0.0212652 0.0245608 0.0175104 0.0212652 0.0209126 0.0256429 0.0212652 0.0245608 0.0256429 0.0300075 0.0184283 0.0200414 0.0245608 0.0272718 0.0200414 0.0210085 0.0272718 0.0292709 0.0245608 0.0272718 0.0300075 0.0338874 0.0272718 0.0292709 0.0338874 0.0371353 0.0209126 0.0256429 0.0240392 0.0295577 0.0256429 0.0300075 0.0295577 0.0347648 0.0240392 0.0295577 0.0272207 0.0334931 0.0295577 0.0347648 0.0334931 0.039421 0.0300075 0.0338874 0.0347648 0.0395918 0.0338874 0.0371353 0.0395918 0.0439395 0.0347648 0.0395918 0.039421 0.0449606 0.0395918 0.0439395 0.0449606 0.0500751 0.00196904 0.00185666 0.00413827 0.00395006 0.00185666 0.00169016 0.00395006 0.0036417 0.00413827 0.00395006 0.00789205 0.00765465 0.00395006 0.0036417 0.00765465 0.00717508 0.00169016 0.00148816 0.0036417 0.0032482 0.00148816 0.00126894 0.0032482 0.00280595 0.0036417 0.0032482 0.00717508 0.00650871 0.0032482 0.00280595 0.00650871 0.00571852 0.00789205 0.00765465 0.0135795 0.013438 0.00765465 0.00717508 0.013438 0.012861 0.0135795 0.013438 0.0210085 0.0212908 0.013438 0.012861 0.0212908 0.0208904 0.00717508 0.00650871 0.012861 0.0119165 0.00650871 0.00571852 0.0119165 0.0106949 0.012861 0.0119165 0.0208904 0.019857 0.0119165 0.0106949 0.019857 0.0182861 0.00126894 0.00104876 0.00280595 0.00234914 0.00104876 0.000840613 0.00234914 0.00190683 0.00280595 0.00234914 0.00571852 0.00486846 0.00234914 0.00190683 0.00486846 0.00401714 0.000840613 0.000653684 0.00190683 0.00150105 0.000653684 0.000493281 0.00150105 0.00114608 0.00190683 0.00150105 0.00401714 0.00321291 0.00150105 0.00114608 0.00321291 0.00249077 0.00571852 0.00486846 0.0106949 0.00929885 0.00486846 0.00401714 0.00929885 0.00783253 0.0106949 0.00929885 0.0182861 0.016311 0.00929885 0.00783253 0.016311 0.0140879 0.00401714 0.00321291 0.00783253 0.00639066 0.00321291 0.00249077 0.00639066 0.00504994 0.00783253 0.00639066 0.0140879 0.0117776 0.00639066 0.00504994 0.0117776 0.00952661 0.0210085 0.0212908 0.0292709 0.0304449 0.0212908 0.0208904 0.0304449 0.0307149 0.0292709 0.0304449 0.0371353 0.0395819 0.0304449 0.0307149 0.0395819 0.0410546 0.0208904 0.019857 0.0307149 0.0300563 0.019857 0.0182861 0.0300563 0.0285138 0.0307149 0.0300563 0.0410546 0.0414084 0.0300563 0.0285138 0.0414084 0.0405623 0.0371353 0.0395819 0.0439395 0.0476611 0.0395819 0.0410546 0.0476611 0.0505566 0.0439395 0.0476611 0.0500751 0.0547088 0.0476611 0.0505566 0.0547088 0.0587496 0.0410546 0.0414084 0.0505566 0.0523889 0.0414084 0.0405623 0.0523889 0.0529241 0.0505566 0.0523889 0.0587496 0.0619988 0.0523889 0.0529241 0.0619988 0.0641695 0.0182861 0.016311 0.0285138 0.0262052 0.016311 0.0140879 0.0262052 0.0233121 0.0285138 0.0262052 0.0405623 0.0385304 0.0262052 0.0233121 0.0385304 0.0354377 0.0140879 0.0117776 0.0233121 0.0200587 0.0117776 0.00952661 0.0200587 0.016682 0.0233121 0.0200587 0.0354377 0.0315136 0.0200587 0.016682 0.0315136 0.0270632 0.0405623 0.0385304 0.0529241 0.0519897 0.0385304 0.0354377 0.0519897 0.0495328 0.0529241 0.0519897 0.0641695 0.0649288 0.0519897 0.0495328 0.0649288 0.0639804 0.0354377 0.0315136 0.0495328 0.0456592 0.0315136 0.0270632 0.0456592 0.0406372 0.0495328 0.0456592 0.0639804 0.0611629 0.0456592 0.0406372 0.0611629 0.0565273 0 0 2.3987e-07 1.73284e-07 0 0 1.73284e-07 1.21865e-07 2.3987e-07 1.73284e-07 8.88395e-07 6.40119e-07 1.73284e-07 1.21865e-07 6.40119e-07 4.48697e-07 0 0 1.21865e-07 8.34767e-08 0 0 8.34767e-08 5.57056e-08 1.21865e-07 8.34767e-08 4.48697e-07 3.06081e-07 8.34767e-08 5.57056e-08 3.06081e-07 2.03239e-07 8.88395e-07 6.40119e-07 2.93273e-06 2.10952e-06 6.40119e-07 4.48697e-07 2.10952e-06 1.47553e-06 2.93273e-06 2.10952e-06 9.15211e-06 6.58106e-06 2.10952e-06 1.47553e-06 6.58106e-06 4.6005e-06 4.48697e-07 3.06081e-07 1.47553e-06 1.00386e-06 3.06081e-07 2.03239e-07 1.00386e-06 6.64392e-07 1.47553e-06 1.00386e-06 4.6005e-06 3.12702e-06 1.00386e-06 6.64392e-07 3.12702e-06 2.06691e-06 0 0 5.57056e-08 3.61932e-08 0 0 3.61932e-08 2.28445e-08 5.57056e-08 3.61932e-08 2.03239e-07 1.31352e-07 3.61932e-08 2.28445e-08 1.31352e-07 8.25624e-08 0 0 2.28445e-08 1.39323e-08 0 0 1.39323e-08 8.11642e-09 2.28445e-08 1.39323e-08 8.25624e-08 5.03573e-08 1.39323e-08 8.11642e-09 5.03573e-08 2.96494e-08 2.03239e-07 1.31352e-07 6.64392e-07 4.27799e-07 1.31352e-07 8.25624e-08 4.27799e-07 2.67956e-07 6.64392e-07 4.27799e-07 2.06691e-06 1.32864e-06 4.27799e-07 2.67956e-07 1.32864e-06 8.30591e-07 8.25624e-08 5.03573e-08 2.67956e-07 1.63165e-07 5.03573e-08 2.96494e-08 1.63165e-07 9.64282e-08 2.67956e-07 1.63165e-07 8.30591e-07 5.04901e-07 1.63165e-07 9.64282e-08 5.04901e-07 2.98319e-07 9.15211e-06 6.58106e-06 2.70539e-05 1.94798e-05 6.58106e-06 4.6005e-06 1.94798e-05 1.36317e-05 2.70539e-05 1.94798e-05 7.55902e-05 5.46069e-05 1.94798e-05 1.36317e-05 5.46069e-05 3.83259e-05 4.6005e-06 3.12702e-06 1.36317e-05 9.27256e-06 3.12702e-06 2.06691e-06 9.27256e-06 6.13154e-06 1.36317e-05 9.27256e-06 3.83259e-05 2.61369e-05 9.27256e-06 6.13154e-06 2.61369e-05 1.73206e-05 7.55902e-05 5.46069e-05 0.000199127 0.000144652 5.46069e-05 3.83259e-05 0.000144652 0.000102047 0.000199127 0.000144652 0.000493281 0.000361275 0.000144652 0.000102047 0.000361275 0.00025682 3.83259e-05 2.61369e-05 0.000102047 6.99176e-05 2.61369e-05 1.73206e-05 6.99176e-05 4.65261e-05 0.000102047 6.99176e-05 0.00025682 0.000177205 6.99176e-05 4.65261e-05 0.000177205 0.000118678 2.06691e-06 1.32864e-06 6.13154e-06 3.94162e-06 1.32864e-06 8.30591e-07 3.94162e-06 2.46327e-06 6.13154e-06 3.94162e-06 1.73206e-05 1.11538e-05 3.94162e-06 2.46327e-06 1.11538e-05 6.97946e-06 8.30591e-07 5.04901e-07 2.46327e-06 1.49643e-06 5.04901e-07 2.98319e-07 1.49643e-06 8.83591e-07 2.46327e-06 1.49643e-06 6.97946e-06 4.24356e-06 1.49643e-06 8.83591e-07 4.24356e-06 2.50671e-06 1.73206e-05 1.11538e-05 4.65261e-05 3.00695e-05 1.11538e-05 6.97946e-06 3.00695e-05 1.88735e-05 4.65261e-05 3.00695e-05 0.000118678 7.71426e-05 3.00695e-05 1.88735e-05 7.71426e-05 4.86647e-05 6.97946e-06 4.24356e-06 1.88735e-05 1.15039e-05 4.24356e-06 2.50671e-06 1.15039e-05 6.80849e-06 1.88735e-05 1.15039e-05 4.86647e-05 2.97914e-05 1.15039e-05 6.80849e-06 2.97914e-05 1.76959e-05 0 0 8.11642e-09 4.40966e-09 0 0 4.40966e-09 2.11348e-09 8.11642e-09 4.40966e-09 2.96494e-08 1.66673e-08 4.40966e-09 2.11348e-09 1.66673e-08 8.73983e-09 0 0 2.11348e-09 7.47768e-10 0 0 7.47768e-10 -1.2545e-11 2.11348e-09 7.47768e-10 8.73983e-09 4.04758e-09 7.47768e-10 -1.2545e-11 4.04758e-09 1.38799e-09 2.96494e-08 1.66673e-08 9.64282e-08 5.50927e-08 1.66673e-08 8.73983e-09 5.50927e-08 3.01738e-08 9.64282e-08 5.50927e-08 2.98319e-07 1.71127e-07 5.50927e-08 3.01738e-08 1.71127e-07 9.50462e-08 8.73983e-09 4.04758e-09 3.01738e-08 1.55598e-08 4.04758e-09 1.38799e-09 1.55598e-08 7.25093e-09 3.01738e-08 1.55598e-08 9.50462e-08 5.08004e-08 1.55598e-08 7.25093e-09 5.08004e-08 2.57826e-08 0 0 -1.2545e-11 -3.87005e-10 0 0 -3.87005e-10 -5.24491e-10 -1.2545e-11 -3.87005e-10 1.38799e-09 -1.75874e-11 -3.87005e-10 -5.24491e-10 -1.75874e-11 -6.68154e-10 0 0 -5.24491e-10 -5.25939e-10 0 0 -5.25939e-10 -4.58678e-10 -5.24491e-10 -5.25939e-10 -6.68154e-10 -8.82193e-10 -5.25939e-10 -4.58678e-10 -8.82193e-10 -8.61795e-10 1.38799e-09 -1.75874e-11 7.25093e-09 2.71535e-09 -1.75874e-11 -6.68154e-10 2.71535e-09 3.91022e-10 7.25093e-09 2.71535e-09 2.57826e-08 1.20592e-08 2.71535e-09 3.91022e-10 1.20592e-08 4.8077e-09 -6.68154e-10 -8.82193e-10 3.91022e-10 -6.69121e-10 -8.82193e-10 -8.61795e-10 -6.69121e-10 -1.03345e-09 3.91022e-10 -6.69121e-10 4.8077e-09 1.18191e-09 -6.69121e-10 -1.03345e-09 1.18191e-09 -4.61717e-10 2.98319e-07 1.71127e-07 8.83591e-07 5.06949e-07 1.71127e-07 9.50462e-08 5.06949e-07 2.82393e-07 8.83591e-07 5.06949e-07 2.50671e-06 1.43841e-06 5.06949e-07 2.82393e-07 1.43841e-06 8.0159e-07 9.50462e-08 5.08004e-08 2.82393e-07 1.52433e-07 5.08004e-08 2.57826e-08 1.52433e-07 7.93712e-08 2.82393e-07 1.52433e-07 8.0159e-07 4.33571e-07 1.52433e-07 7.93712e-08 4.33571e-07 2.27289e-07 2.50671e-06 1.43841e-06 6.80849e-06 3.91215e-06 1.43841e-06 8.0159e-07 3.91215e-06 2.18207e-06 6.80849e-06 3.91215e-06 1.76959e-05 1.01978e-05 3.91215e-06 2.18207e-06 1.01978e-05 5.70059e-06 8.0159e-07 4.33571e-07 2.18207e-06 1.18115e-06 4.33571e-07 2.27289e-07 1.18115e-06 6.20192e-07 2.18207e-06 1.18115e-06 5.70059e-06 3.09058e-06 1.18115e-06 6.20192e-07 3.09058e-06 1.62468e-06 2.57826e-08 1.20592e-08 7.93712e-08 3.94602e-08 1.20592e-08 4.8077e-09 3.94602e-08 1.8302e-08 7.93712e-08 3.94602e-08 2.27289e-07 1.15069e-07 3.94602e-08 1.8302e-08 1.15069e-07 5.57926e-08 4.8077e-09 1.18191e-09 1.8302e-08 7.4739e-09 1.18191e-09 -4.61717e-10 7.4739e-09 2.20085e-09 1.8302e-08 7.4739e-09 5.57926e-08 2.54112e-08 7.4739e-09 2.20085e-09 2.54112e-08 1.03633e-08 2.27289e-07 1.15069e-07 6.20192e-07 3.15517e-07 1.15069e-07 5.57926e-08 3.15517e-07 1.55065e-07 6.20192e-07 3.15517e-07 1.62468e-06 8.27812e-07 3.15517e-07 1.55065e-07 8.27812e-07 4.08413e-07 5.57926e-08 2.54112e-08 1.55065e-07 7.3088e-08 2.54112e-08 1.03633e-08 7.3088e-08 3.24689e-08 1.55065e-07 7.3088e-08 4.08413e-07 1.94596e-07 7.3088e-08 3.24689e-08 1.94596e-07 8.89428e-08 0.000493281 0.000361275 0.00114608 0.000848779 0.000361275 0.00025682 0.000848779 0.000609719 0.00114608 0.000848779 0.00249077 0.00187153 0.000848779 0.000609719 0.00187153 0.00136286 0.00025682 0.000177205 0.000609719 0.000424817 0.000177205 0.000118678 0.000424817 0.000287067 0.000609719 0.000424817 0.00136286 0.00096171 0.000424817 0.000287067 0.00096171 0.000657548 0.00249077 0.00187153 0.00504994 0.00386406 0.00187153 0.00136286 0.00386406 0.00286243 0.00504994 0.00386406 0.00952661 0.00745321 0.00386406 0.00286243 0.00745321 0.00563811 0.00136286 0.00096171 0.00286243 0.00205249 0.00096171 0.000657548 0.00205249 0.00142431 0.00286243 0.00205249 0.00563811 0.00412279 0.00205249 0.00142431 0.00412279 0.00291352 0.000118678 7.71426e-05 0.000287067 0.000188119 7.71426e-05 4.86647e-05 0.000188119 0.00011954 0.000287067 0.000188119 0.000657548 0.00043556 0.000188119 0.00011954 0.00043556 0.00027948 4.86647e-05 2.97914e-05 0.00011954 7.36498e-05 2.97914e-05 1.76959e-05 7.36498e-05 4.39906e-05 0.00011954 7.36498e-05 0.00027948 0.000173693 7.36498e-05 4.39906e-05 0.000173693 0.000104541 0.000657548 0.00043556 0.00142431 0.000956409 0.00043556 0.00027948 0.000956409 0.000621342 0.00142431 0.000956409 0.00291352 0.00198944 0.000956409 0.000621342 0.00198944 0.00131238 0.00027948 0.000173693 0.000621342 0.000390489 0.000173693 0.000104541 0.000390489 0.000237369 0.000621342 0.000390489 0.00131238 0.000836272 0.000390489 0.000237369 0.000836272 0.000514687 0.00952661 0.00745321 0.016682 0.0134017 0.00745321 0.00563811 0.0134017 0.010395 0.016682 0.0134017 0.0270632 0.0224222 0.0134017 0.010395 0.0224222 0.0179085 0.00563811 0.00412279 0.010395 0.00778169 0.00412279 0.00291352 0.00778169 0.00562051 0.010395 0.00778169 0.0179085 0.0137805 0.00778169 0.00562051 0.0137805 0.0102119 0.0270632 0.0224222 0.0406372 0.0348617 0.0224222 0.0179085 0.0348617 0.02879 0.0406372 0.0348617 0.0565273 0.0503628 0.0348617 0.02879 0.0503628 0.0431596 0.0179085 0.0137805 0.02879 0.0228659 0.0137805 0.0102119 0.0228659 0.0174542 0.02879 0.0228659 0.0431596 0.0355181 0.0228659 0.0174542 0.0355181 0.0280373 0.00291352 0.00198944 0.00562051 0.00391586 0.00198944 0.00131238 0.00391586 0.00263119 0.00562051 0.00391586 0.0102119 0.0072855 0.00391586 0.00263119 0.0072855 0.00500297 0.00131238 0.000836272 0.00263119 0.00170489 0.000836272 0.000514687 0.00170489 0.00106517 0.00263119 0.00170489 0.00500297 0.00330644 0.00170489 0.00106517 0.00330644 0.00210294 0.0102119 0.0072855 0.0174542 0.0127993 0.0072855 0.00500297 0.0127993 0.00901414 0.0174542 0.0127993 0.0280373 0.0212139 0.0127993 0.00901414 0.0212139 0.0153784 0.00500297 0.00330644 0.00901414 0.00609618 0.00330644 0.00210294 0.00609618 0.00395881 0.00901414 0.00609618 0.0153784 0.0106788 0.00609618 0.00395881 0.0106788 0.00710286 1.76959e-05 1.01978e-05 4.39906e-05 2.54695e-05 1.01978e-05 5.70059e-06 2.54695e-05 1.42919e-05 4.39906e-05 2.54695e-05 0.000104541 6.09275e-05 2.54695e-05 1.42919e-05 6.09275e-05 3.43799e-05 5.70059e-06 3.09058e-06 1.42919e-05 7.77142e-06 3.09058e-06 1.62468e-06 7.77142e-06 4.09426e-06 1.42919e-05 7.77142e-06 3.43799e-05 1.87802e-05 7.77142e-06 4.09426e-06 1.87802e-05 9.92968e-06 0.000104541 6.09275e-05 0.000237369 0.00013955 6.09275e-05 3.43799e-05 0.00013955 7.93364e-05 0.000237369 0.000139