<?xml version="1.0" ?> 
<!-- 
# vtk DataFile Version 3.0
#This file was generated by the deal.II library on 21:45:55 at 2021/4/29
-->
<VTKFile type="UnstructuredGrid" version="0.1" byte_order="LittleEndian">
<UnstructuredGrid>
<Piece NumberOfPoints="65536" NumberOfCells="16384" >
  <Points>
    <DataArray type="Float32" NumberOfComponents="3" format="ascii">
-1 -1 0
-0.984375 -1 0
-1 -0.984375 0
-0.984375 -0.984375 0
-0.984375 -1 0
-0.96875 -1 0
-0.984375 -0.984375 0
-0.96875 -0.984375 0
-1 -0.984375 0
-0.984375 -0.984375 0
-1 -0.96875 0
-0.984375 -0.96875 0
-0.984375 -0.984375 0
-0.96875 -0.984375 0
-0.984375 -0.96875 0
-0.96875 -0.96875 0
-0.96875 -1 0
-0.953125 -1 0
-0.96875 -0.984375 0
-0.953125 -0.984375 0
-0.953125 -1 0
-0.9375 -1 0
-0.953125 -0.984375 0
-0.9375 -0.984375 0
-0.96875 -0.984375 0
-0.953125 -0.984375 0
-0.96875 -0.96875 0
-0.953125 -0.96875 0
-0.953125 -0.984375 0
-0.9375 -0.984375 0
-0.953125 -0.96875 0
-0.9375 -0.96875 0
-1 -0.96875 0
-0.984375 -0.96875 0
-1 -0.953125 0
-0.984375 -0.953125 0
-0.984375 -0.96875 0
-0.96875 -0.96875 0
-0.984375 -0.953125 0
-0.96875 -0.953125 0
-1 -0.953125 0
-0.984375 -0.953125 0
-1 -0.9375 0
-0.984375 -0.9375 0
-0.984375 -0.953125 0
-0.96875 -0.953125 0
-0.984375 -0.9375 0
-0.96875 -0.9375 0
-0.96875 -0.96875 0
-0.953125 -0.96875 0
-0.96875 -0.953125 0
-0.953125 -0.953125 0
-0.953125 -0.96875 0
-0.9375 -0.96875 0
-0.953125 -0.953125 0
-0.9375 -0.953125 0
-0.96875 -0.953125 0
-0.953125 -0.953125 0
-0.96875 -0.9375 0
-0.953125 -0.9375 0
-0.953125 -0.953125 0
-0.9375 -0.953125 0
-0.953125 -0.9375 0
-0.9375 -0.9375 0
-0.9375 -1 0
-0.921875 -1 0
-0.9375 -0.984375 0
-0.921875 -0.984375 0
-0.921875 -1 0
-0.90625 -1 0
-0.921875 -0.984375 0
-0.90625 -0.984375 0
-0.9375 -0.984375 0
-0.921875 -0.984375 0
-0.9375 -0.96875 0
-0.921875 -0.96875 0
-0.921875 -0.984375 0
-0.90625 -0.984375 0
-0.921875 -0.96875 0
-0.90625 -0.96875 0
-0.90625 -1 0
-0.890625 -1 0
-0.90625 -0.984375 0
-0.890625 -0.984375 0
-0.890625 -1 0
-0.875 -1 0
-0.890625 -0.984375 0
-0.875 -0.984375 0
-0.90625 -0.984375 0
-0.890625 -0.984375 0
-0.90625 -0.96875 0
-0.890625 -0.96875 0
-0.890625 -0.984375 0
-0.875 -0.984375 0
-0.890625 -0.96875 0
-0.875 -0.96875 0
-0.9375 -0.96875 0
-0.921875 -0.96875 0
-0.9375 -0.953125 0
-0.921875 -0.953125 0
-0.921875 -0.96875 0
-0.90625 -0.96875 0
-0.921875 -0.953125 0
-0.90625 -0.953125 0
-0.9375 -0.953125 0
-0.921875 -0.953125 0
-0.9375 -0.9375 0
-0.921875 -0.9375 0
-0.921875 -0.953125 0
-0.90625 -0.953125 0
-0.921875 -0.9375 0
-0.90625 -0.9375 0
-0.90625 -0.96875 0
-0.890625 -0.96875 0
-0.90625 -0.953125 0
-0.890625 -0.953125 0
-0.890625 -0.96875 0
-0.875 -0.96875 0
-0.890625 -0.953125 0
-0.875 -0.953125 0
-0.90625 -0.953125 0
-0.890625 -0.953125 0
-0.90625 -0.9375 0
-0.890625 -0.9375 0
-0.890625 -0.953125 0
-0.875 -0.953125 0
-0.890625 -0.9375 0
-0.875 -0.9375 0
-1 -0.9375 0
-0.984375 -0.9375 0
-1 -0.921875 0
-0.984375 -0.921875 0
-0.984375 -0.9375 0
-0.96875 -0.9375 0
-0.984375 -0.921875 0
-0.96875 -0.921875 0
-1 -0.921875 0
-0.984375 -0.921875 0
-1 -0.90625 0
-0.984375 -0.90625 0
-0.984375 -0.921875 0
-0.96875 -0.921875 0
-0.984375 -0.90625 0
-0.96875 -0.90625 0
-0.96875 -0.9375 0
-0.953125 -0.9375 0
-0.96875 -0.921875 0
-0.953125 -0.921875 0
-0.953125 -0.9375 0
-0.9375 -0.9375 0
-0.953125 -0.921875 0
-0.9375 -0.921875 0
-0.96875 -0.921875 0
-0.953125 -0.921875 0
-0.96875 -0.90625 0
-0.953125 -0.90625 0
-0.953125 -0.921875 0
-0.9375 -0.921875 0
-0.953125 -0.90625 0
-0.9375 -0.90625 0
-1 -0.90625 0
-0.984375 -0.90625 0
-1 -0.890625 0
-0.984375 -0.890625 0
-0.984375 -0.90625 0
-0.96875 -0.90625 0
-0.984375 -0.890625 0
-0.96875 -0.890625 0
-1 -0.890625 0
-0.984375 -0.890625 0
-1 -0.875 0
-0.984375 -0.875 0
-0.984375 -0.890625 0
-0.96875 -0.890625 0
-0.984375 -0.875 0
-0.96875 -0.875 0
-0.96875 -0.90625 0
-0.953125 -0.90625 0
-0.96875 -0.890625 0
-0.953125 -0.890625 0
-0.953125 -0.90625 0
-0.9375 -0.90625 0
-0.953125 -0.890625 0
-0.9375 -0.890625 0
-0.96875 -0.890625 0
-0.953125 -0.890625 0
-0.96875 -0.875 0
-0.953125 -0.875 0
-0.953125 -0.890625 0
-0.9375 -0.890625 0
-0.953125 -0.875 0
-0.9375 -0.875 0
-0.9375 -0.9375 0
-0.921875 -0.9375 0
-0.9375 -0.921875 0
-0.921875 -0.921875 0
-0.921875 -0.9375 0
-0.90625 -0.9375 0
-0.921875 -0.921875 0
-0.90625 -0.921875 0
-0.9375 -0.921875 0
-0.921875 -0.921875 0
-0.9375 -0.90625 0
-0.921875 -0.90625 0
-0.921875 -0.921875 0
-0.90625 -0.921875 0
-0.921875 -0.90625 0
-0.90625 -0.90625 0
-0.90625 -0.9375 0
-0.890625 -0.9375 0
-0.90625 -0.921875 0
-0.890625 -0.921875 0
-0.890625 -0.9375 0
-0.875 -0.9375 0
-0.890625 -0.921875 0
-0.875 -0.921875 0
-0.90625 -0.921875 0
-0.890625 -0.921875 0
-0.90625 -0.90625 0
-0.890625 -0.90625 0
-0.890625 -0.921875 0
-0.875 -0.921875 0
-0.890625 -0.90625 0
-0.875 -0.90625 0
-0.9375 -0.90625 0
-0.921875 -0.90625 0
-0.9375 -0.890625 0
-0.921875 -0.890625 0
-0.921875 -0.90625 0
-0.90625 -0.90625 0
-0.921875 -0.890625 0
-0.90625 -0.890625 0
-0.9375 -0.890625 0
-0.921875 -0.890625 0
-0.9375 -0.875 0
-0.921875 -0.875 0
-0.921875 -0.890625 0
-0.90625 -0.890625 0
-0.921875 -0.875 0
-0.90625 -0.875 0
-0.90625 -0.90625 0
-0.890625 -0.90625 0
-0.90625 -0.890625 0
-0.890625 -0.890625 0
-0.890625 -0.90625 0
-0.875 -0.90625 0
-0.890625 -0.890625 0
-0.875 -0.890625 0
-0.90625 -0.890625 0
-0.890625 -0.890625 0
-0.90625 -0.875 0
-0.890625 -0.875 0
-0.890625 -0.890625 0
-0.875 -0.890625 0
-0.890625 -0.875 0
-0.875 -0.875 0
-0.875 -1 0
-0.859375 -1 0
-0.875 -0.984375 0
-0.859375 -0.984375 0
-0.859375 -1 0
-0.84375 -1 0
-0.859375 -0.984375 0
-0.84375 -0.984375 0
-0.875 -0.984375 0
-0.859375 -0.984375 0
-0.875 -0.96875 0
-0.859375 -0.96875 0
-0.859375 -0.984375 0
-0.84375 -0.984375 0
-0.859375 -0.96875 0
-0.84375 -0.96875 0
-0.84375 -1 0
-0.828125 -1 0
-0.84375 -0.984375 0
-0.828125 -0.984375 0
-0.828125 -1 0
-0.8125 -1 0
-0.828125 -0.984375 0
-0.8125 -0.984375 0
-0.84375 -0.984375 0
-0.828125 -0.984375 0
-0.84375 -0.96875 0
-0.828125 -0.96875 0
-0.828125 -0.984375 0
-0.8125 -0.984375 0
-0.828125 -0.96875 0
-0.8125 -0.96875 0
-0.875 -0.96875 0
-0.859375 -0.96875 0
-0.875 -0.953125 0
-0.859375 -0.953125 0
-0.859375 -0.96875 0
-0.84375 -0.96875 0
-0.859375 -0.953125 0
-0.84375 -0.953125 0
-0.875 -0.953125 0
-0.859375 -0.953125 0
-0.875 -0.9375 0
-0.859375 -0.9375 0
-0.859375 -0.953125 0
-0.84375 -0.953125 0
-0.859375 -0.9375 0
-0.84375 -0.9375 0
-0.84375 -0.96875 0
-0.828125 -0.96875 0
-0.84375 -0.953125 0
-0.828125 -0.953125 0
-0.828125 -0.96875 0
-0.8125 -0.96875 0
-0.828125 -0.953125 0
-0.8125 -0.953125 0
-0.84375 -0.953125 0
-0.828125 -0.953125 0
-0.84375 -0.9375 0
-0.828125 -0.9375 0
-0.828125 -0.953125 0
-0.8125 -0.953125 0
-0.828125 -0.9375 0
-0.8125 -0.9375 0
-0.8125 -1 0
-0.796875 -1 0
-0.8125 -0.984375 0
-0.796875 -0.984375 0
-0.796875 -1 0
-0.78125 -1 0
-0.796875 -0.984375 0
-0.78125 -0.984375 0
-0.8125 -0.984375 0
-0.796875 -0.984375 0
-0.8125 -0.96875 0
-0.796875 -0.96875 0
-0.796875 -0.984375 0
-0.78125 -0.984375 0
-0.796875 -0.96875 0
-0.78125 -0.96875 0
-0.78125 -1 0
-0.765625 -1 0
-0.78125 -0.984375 0
-0.765625 -0.984375 0
-0.765625 -1 0
-0.75 -1 0
-0.765625 -0.984375 0
-0.75 -0.984375 0
-0.78125 -0.984375 0
-0.765625 -0.984375 0
-0.78125 -0.96875 0
-0.765625 -0.96875 0
-0.765625 -0.984375 0
-0.75 -0.984375 0
-0.765625 -0.96875 0
-0.75 -0.96875 0
-0.8125 -0.96875 0
-0.796875 -0.96875 0
-0.8125 -0.953125 0
-0.796875 -0.953125 0
-0.796875 -0.96875 0
-0.78125 -0.96875 0
-0.796875 -0.953125 0
-0.78125 -0.953125 0
-0.8125 -0.953125 0
-0.796875 -0.953125 0
-0.8125 -0.9375 0
-0.796875 -0.9375 0
-0.796875 -0.953125 0
-0.78125 -0.953125 0
-0.796875 -0.9375 0
-0.78125 -0.9375 0
-0.78125 -0.96875 0
-0.765625 -0.96875 0
-0.78125 -0.953125 0
-0.765625 -0.953125 0
-0.765625 -0.96875 0
-0.75 -0.96875 0
-0.765625 -0.953125 0
-0.75 -0.953125 0
-0.78125 -0.953125 0
-0.765625 -0.953125 0
-0.78125 -0.9375 0
-0.765625 -0.9375 0
-0.765625 -0.953125 0
-0.75 -0.953125 0
-0.765625 -0.9375 0
-0.75 -0.9375 0
-0.875 -0.9375 0
-0.859375 -0.9375 0
-0.875 -0.921875 0
-0.859375 -0.921875 0
-0.859375 -0.9375 0
-0.84375 -0.9375 0
-0.859375 -0.921875 0
-0.84375 -0.921875 0
-0.875 -0.921875 0
-0.859375 -0.921875 0
-0.875 -0.90625 0
-0.859375 -0.90625 0
-0.859375 -0.921875 0
-0.84375 -0.921875 0
-0.859375 -0.90625 0
-0.84375 -0.90625 0
-0.84375 -0.9375 0
-0.828125 -0.9375 0
-0.84375 -0.921875 0
-0.828125 -0.921875 0
-0.828125 -0.9375 0
-0.8125 -0.9375 0
-0.828125 -0.921875 0
-0.8125 -0.921875 0
-0.84375 -0.921875 0
-0.828125 -0.921875 0
-0.84375 -0.90625 0
-0.828125 -0.90625 0
-0.828125 -0.921875 0
-0.8125 -0.921875 0
-0.828125 -0.90625 0
-0.8125 -0.90625 0
-0.875 -0.90625 0
-0.859375 -0.90625 0
-0.875 -0.890625 0
-0.859375 -0.890625 0
-0.859375 -0.90625 0
-0.84375 -0.90625 0
-0.859375 -0.890625 0
-0.84375 -0.890625 0
-0.875 -0.890625 0
-0.859375 -0.890625 0
-0.875 -0.875 0
-0.859375 -0.875 0
-0.859375 -0.890625 0
-0.84375 -0.890625 0
-0.859375 -0.875 0
-0.84375 -0.875 0
-0.84375 -0.90625 0
-0.828125 -0.90625 0
-0.84375 -0.890625 0
-0.828125 -0.890625 0
-0.828125 -0.90625 0
-0.8125 -0.90625 0
-0.828125 -0.890625 0
-0.8125 -0.890625 0
-0.84375 -0.890625 0
-0.828125 -0.890625 0
-0.84375 -0.875 0
-0.828125 -0.875 0
-0.828125 -0.890625 0
-0.8125 -0.890625 0
-0.828125 -0.875 0
-0.8125 -0.875 0
-0.8125 -0.9375 0
-0.796875 -0.9375 0
-0.8125 -0.921875 0
-0.796875 -0.921875 0
-0.796875 -0.9375 0
-0.78125 -0.9375 0
-0.796875 -0.921875 0
-0.78125 -0.921875 0
-0.8125 -0.921875 0
-0.796875 -0.921875 0
-0.8125 -0.90625 0
-0.796875 -0.90625 0
-0.796875 -0.921875 0
-0.78125 -0.921875 0
-0.796875 -0.90625 0
-0.78125 -0.90625 0
-0.78125 -0.9375 0
-0.765625 -0.9375 0
-0.78125 -0.921875 0
-0.765625 -0.921875 0
-0.765625 -0.9375 0
-0.75 -0.9375 0
-0.765625 -0.921875 0
-0.75 -0.921875 0
-0.78125 -0.921875 0
-0.765625 -0.921875 0
-0.78125 -0.90625 0
-0.765625 -0.90625 0
-0.765625 -0.921875 0
-0.75 -0.921875 0
-0.765625 -0.90625 0
-0.75 -0.90625 0
-0.8125 -0.90625 0
-0.796875 -0.90625 0
-0.8125 -0.890625 0
-0.796875 -0.890625 0
-0.796875 -0.90625 0
[...]
  <PointData Scalars="scalars">
    <DataArray type="Float32" Name="U" format="ascii">
0 0 0 4.72154e-05 0 0 4.72154e-05 9.25388e-05 0 4.72154e-05 0 9.28121e-05 4.72154e-05 9.25388e-05 9.28121e-05 0.000182792 0 0 9.25388e-05 0.000134454 0 0 0.000134454 0.000168368 9.25388e-05 0.000134454 0.000182792 0.000261214 0.000134454 0.000168368 0.000261214 0.000326498 0 9.28121e-05 0 0.000129551 9.28121e-05 0.000182792 0.000129551 0.000251975 0 0.000129551 0 0.000137219 0.000129551 0.000251975 0.000137219 0.000267434 0.000182792 0.000261214 0.000251975 0.000366771 0.000261214 0.000326498 0.000366771 0.00045244 0.000251975 0.000366771 0.000267434 0.000378004 0.000366771 0.00045244 0.000378004 0.000458955 0 0 0.000168368 0.00018978 0 0 0.00018978 0.000188158 0.000168368 0.00018978 0.000326498 0.000359064 0.00018978 0.000188158 0.000359064 0.000351089 0 0 0.000188158 0.000149832 0 0 0.000149832 5.31965e-05 0.000188158 0.000149832 0.000351089 0.000263794 0.000149832 5.31965e-05 0.000263794 6.93962e-05 0.000326498 0.000359064 0.00045244 0.000506412 0.000359064 0.000351089 0.000506412 0.000480348 0.00045244 0.000506412 0.000458955 0.000480024 0.000506412 0.000480348 0.000480024 0.000416529 0.000351089 0.000263794 0.000480348 0.00035484 0.000263794 6.93962e-05 0.00035484 3.47132e-05 0.000480348 0.00035484 0.000416529 0.000198557 0.00035484 3.47132e-05 0.000198557 -0.0002344 0 0.000137219 0 0.000141075 0.000137219 0.000267434 0.000141075 0.000276452 0 0.000141075 0 0.000124772 0.000141075 0.000276452 0.000124772 0.000231272 0.000267434 0.000378004 0.000276452 0.000384602 0.000378004 0.000458955 0.000384602 0.000462581 0.000276452 0.000384602 0.000231272 0.000323777 0.000384602 0.000462581 0.000323777 0.000347255 0 0.000124772 0 9.67972e-05 0.000124772 0.000231272 9.67972e-05 0.000183892 0 9.67972e-05 0 4.4003e-05 9.67972e-05 0.000183892 4.4003e-05 7.92759e-05 0.000231272 0.000323777 0.000183892 0.000234884 0.000323777 0.000347255 0.000234884 0.000240149 0.000183892 0.000234884 7.92759e-05 6.58438e-05 0.000234884 0.000240149 6.58438e-05 5.8446e-06 0.000458955 0.000480024 0.000462581 0.000459207 0.000480024 0.000416529 0.000459207 0.000352662 0.000462581 0.000459207 0.000347255 0.000312859 0.000459207 0.000352662 0.000312859 0.000106159 0.000416529 0.000198557 0.000352662 3.99319e-05 0.000198557 -0.0002344 3.99319e-05 -0.000555468 0.000352662 3.99319e-05 0.000106159 -0.000282369 3.99319e-05 -0.000555468 -0.000282369 -0.0010655 0.000347255 0.000312859 0.000240149 0.000132386 0.000312859 0.000106159 0.000132386 -0.000119474 0.000240149 0.000132386 5.8446e-06 -0.000191628 0.000132386 -0.000119474 -0.000191628 -0.000548489 0.000106159 -0.000282369 -0.000119474 -0.000666359 -0.000282369 -0.0010655 -0.000666359 -0.00159482 -0.000119474 -0.000666359 -0.000548489 -0.00123771 -0.000666359 -0.00159482 -0.00123771 -0.00236617 0 0 5.31965e-05 -0.000133556 0 0 -0.000133556 -0.000447782 5.31965e-05 -0.000133556 6.93962e-05 -0.000303812 -0.000133556 -0.000447782 -0.000303812 -0.000923619 0 0 -0.000447782 -0.000946395 0 0 -0.000946395 -0.00167863 -0.000447782 -0.000946395 -0.000923619 -0.00190688 -0.000946395 -0.00167863 -0.00190688 -0.00337077 6.93962e-05 -0.000303812 3.47132e-05 -0.000536897 -0.000303812 -0.000923619 -0.000536897 -0.00152243 3.47132e-05 -0.000536897 -0.0002344 -0.00102825 -0.000536897 -0.00152243 -0.00102825 -0.0023085 -0.000923619 -0.00190688 -0.00152243 -0.00302897 -0.00190688 -0.00337077 -0.00302897 -0.00528257 -0.00152243 -0.00302897 -0.0023085 -0.00433336 -0.00302897 -0.00528257 -0.00433336 -0.0072948 0 0 -0.00167863 -0.00272048 0 0 -0.00272048 -0.00410644 -0.00167863 -0.00272048 -0.00337077 -0.00545389 -0.00272048 -0.00410644 -0.00545389 -0.00827201 0 0 -0.00410644 -0.00589387 0 0 -0.00589387 -0.00803048 -0.00410644 -0.00589387 -0.00827201 -0.0118699 -0.00589387 -0.00803048 -0.0118699 -0.0162117 -0.00337077 -0.00545389 -0.00528257 -0.00841389 -0.00545389 -0.00827201 -0.00841389 -0.0126407 -0.00528257 -0.00841389 -0.0072948 -0.0115314 -0.00841389 -0.0126407 -0.0115314 -0.0171787 -0.00827201 -0.0118699 -0.0126407 -0.0179976 -0.0118699 -0.0162117 -0.0179976 -0.0244831 -0.0126407 -0.0179976 -0.0171787 -0.0244437 -0.0179976 -0.0244831 -0.0244437 -0.0330849 -0.0002344 -0.00102825 -0.000555468 -0.00161735 -0.00102825 -0.0023085 -0.00161735 -0.00331765 -0.000555468 -0.00161735 -0.0010655 -0.00231914 -0.00161735 -0.00331765 -0.00231914 -0.00440335 -0.0023085 -0.00433336 -0.00331765 -0.00593233 -0.00433336 -0.0072948 -0.00593233 -0.00973659 -0.00331765 -0.00593233 -0.00440335 -0.00750313 -0.00593233 -0.00973659 -0.00750313 -0.012127 -0.0010655 -0.00231914 -0.00159482 -0.00320012 -0.00231914 -0.00440335 -0.00320012 -0.00565884 -0.00159482 -0.00320012 -0.00236617 -0.00423372 -0.00320012 -0.00565884 -0.00423372 -0.00711084 -0.00440335 -0.00750313 -0.00565884 -0.00945577 -0.00750313 -0.012127 -0.00945577 -0.0148378 -0.00565884 -0.00945577 -0.00711084 -0.0114464 -0.00945577 -0.0148378 -0.0114464 -0.0177003 -0.0072948 -0.0115314 -0.00973659 -0.0150352 -0.0115314 -0.0171787 -0.0150352 -0.0221076 -0.00973659 -0.0150352 -0.012127 -0.0185152 -0.0150352 -0.0221076 -0.0185152 -0.0271363 -0.0171787 -0.0244437 -0.0221076 -0.0310545 -0.0244437 -0.0330849 -0.0310545 -0.0418421 -0.0221076 -0.0310545 -0.0271363 -0.0379867 -0.0310545 -0.0418421 -0.0379867 -0.0510038 -0.012127 -0.0185152 -0.0148378 -0.0224193 -0.0185152 -0.0271363 -0.0224193 -0.0323314 -0.0148378 -0.0224193 -0.0177003 -0.0263496 -0.0224193 -0.0323314 -0.0263496 -0.037852 -0.0271363 -0.0379867 -0.0323314 -0.0450058 -0.0379867 -0.0510038 -0.0450058 -0.0599688 -0.0323314 -0.0450058 -0.037852 -0.0522691 -0.0450058 -0.0599688 -0.0522691 -0.0695041 0 4.4003e-05 0 -5.04443e-07 4.4003e-05 7.92759e-05 -5.04443e-07 -3.09421e-05 0 -5.04443e-07 0 -5.63065e-05 -5.04443e-07 -3.09421e-05 -5.63065e-05 -0.000128206 7.92759e-05 6.58438e-05 -3.09421e-05 -7.66891e-05 6.58438e-05 5.8446e-06 -7.66891e-05 -0.000235131 -3.09421e-05 -7.66891e-05 -0.000128206 -0.0002564 -7.66891e-05 -0.000235131 -0.0002564 -0.000454954 0 -5.63065e-05 0 -0.000124496 -5.63065e-05 -0.000128206 -0.000124496 -0.000262075 0 -0.000124496 0 -0.000178664 -0.000124496 -0.000262075 -0.000178664 -0.000394706 -0.000128206 -0.0002564 -0.000262075 -0.000470718 -0.0002564 -0.000454954 -0.000470718 -0.00074785 -0.000262075 -0.000470718 -0.000394706 -0.000642025 -0.000470718 -0.00074785 -0.000642025 -0.00103303 5.8446e-06 -0.000191628 -0.000235131 -0.00047255 -0.000191628 -0.000548489 -0.00047255 -0.00098937 -0.000235131 -0.00047255 -0.000454954 -0.000824707 -0.00047255 -0.00098937 -0.000824707 -0.00140754 -0.000548489 -0.00123771 -0.00098937 -0.00177606 -0.00123771 -0.00236617 -0.00177606 -0.00319254 -0.00098937 -0.00177606 -0.00140754 -0.00242603 -0.00177606 -0.00319254 -0.00242603 -0.00399676 -0.000454954 -0.000824707 -0.00074785 -0.00122445 -0.000824707 -0.00140754 -0.00122445 -0.00193154 -0.00074785 -0.00122445 -0.00103303 -0.00155361 -0.00122445 -0.00193154 -0.00155361 -0.00243903 -0.00140754 -0.00242603 -0.00193154 -0.00311608 -0.00242603 -0.00399676 -0.00311608 -0.00492547 -0.00193154 -0.00311608 -0.00243903 -0.00372615 -0.00311608 -0.00492547 -0.00372615 -0.00584695 0 -0.000178664 0 -0.000235322 -0.000178664 -0.000394706 -0.000235322 -0.00049651 0 -0.000235322 0 -0.000279487 -0.000235322 -0.00049651 -0.000279487 -0.000582795 -0.000394706 -0.000642025 -0.00049651 -0.000825358 -0.000642025 -0.00103303 -0.000825358 -0.00126418 -0.00049651 -0.000825358 -0.000582795 -0.000966127 -0.000825358 -0.00126418 -0.000966127 -0.00145888 0 -0.000279487 0 -0.000318999 -0.000279487 -0.000582795 -0.000318999 -0.000673693 0 -0.000318999 0 -0.000375886 -0.000318999 -0.000673693 -0.000375886 -0.000787848 -0.000582795 -0.000966127 -0.000673693 -0.00109962 -0.000966127 -0.00145888 -0.00109962 -0.00167318 -0.000673693 -0.00109962 -0.000787848 -0.00127954 -0.00109962 -0.00167318 -0.00127954 -0.00192287 -0.00103303 -0.00155361 -0.00126418 -0.00191432 -0.00155361 -0.00243903 -0.00191432 -0.00287713 -0.00126418 -0.00191432 -0.00145888 -0.00219034 -0.00191432 -0.00287713 -0.00219034 -0.0032548 -0.00243903 -0.00372615 -0.00287713 -0.004387 -0.00372615 -0.00584695 -0.004387 -0.00667113 -0.00287713 -0.004387 -0.0032548 -0.00491862 -0.004387 -0.00667113 -0.00491862 -0.00743518 -0.00145888 -0.00219034 -0.00167318 -0.00247635 -0.00219034 -0.0032548 -0.00247635 -0.00368461 -0.00167318 -0.00247635 -0.00192287 -0.00281953 -0.00247635 -0.00368461 -0.00281953 -0.00414073 -0.0032548 -0.00491862 -0.00368461 -0.00550045 -0.00491862 -0.00743518 -0.00550045 -0.00828674 -0.00368461 -0.00550045 -0.00414073 -0.00612668 -0.00550045 -0.00828674 -0.00612668 -0.00914519 -0.00236617 -0.00423372 -0.00319254 -0.00531854 -0.00423372 -0.00711084 -0.00531854 -0.00873235 -0.00319254 -0.00531854 -0.00399676 -0.00655207 -0.00531854 -0.00873235 -0.00655207 -0.0103323 -0.00711084 -0.0114464 -0.00873235 -0.0136533 -0.0114464 -0.0177003 -0.0136533 -0.0208565 -0.00873235 -0.0136533 -0.0103323 -0.0160434 -0.0136533 -0.0208565 -0.0160434 -0.0240155 -0.00399676 -0.00655207 -0.00492547 -0.00778057 -0.00655207 -0.0103323 -0.00778057 -0.0120453 -0.00492547 -0.00778057 -0.00584695 -0.00897345 -0.00778057 -0.0120453 -0.00897345 -0.0138053 -0.0103323 -0.0160434 -0.0120453 -0.0183347 -0.0160434 -0.0240155 -0.0183347 -0.0272489 -0.0120453 -0.0183347 -0.0138053 -0.0207023 -0.0183347 -0.0272489 -0.0207023 -0.0305844 -0.0177003 -0.0263496 -0.0208565 -0.03062 -0.0263496 -0.037852 -0.03062 -0.0436397 -0.0208565 -0.03062 -0.0240155 -0.0351222 -0.03062 -0.0436397 -0.0351222 -0.0494909 -0.037852 -0.0522691 -0.0436397 -0.0598534 -0.0522691 -0.0695041 -0.0598534 -0.0791739 -0.0436397 -0.0598534 -0.0494909 -0.0676764 -0.0598534 -0.0791739 -0.0676764 -0.0889038 -0.0240155 -0.0351222 -0.0272489 -0.0394218 -0.0351222 -0.0494909 -0.0394218 -0.0554111 -0.0272489 -0.0394218 -0.0305844 -0.0438629 -0.0394218 -0.0554111 -0.0438629 -0.0612989 -0.0494909 -0.0676764 -0.0554111 -0.0752647 -0.0676764 -0.0889038 -0.0752647 -0.0987305 -0.0554111 -0.0752647 -0.0612989 -0.0828137 -0.0752647 -0.0987305 -0.0828137 -0.108123 -0.00584695 -0.00897345 -0.00667113 -0.0101989 -0.00897345 -0.0138053 -0.0101989 -0.015393 -0.00667113 -0.0101989 -0.00743518 -0.011291 -0.0101989 -0.015393 -0.011291 -0.0169955 -0.0138053 -0.0207023 -0.015393 -0.0230219 -0.0207023 -0.0305844 -0.0230219 -0.033662 -0.015393 -0.0230219 -0.0169955 -0.0252811 -0.0230219 -0.033662 -0.0252811 -0.0368791 -0.00743518 -0.011291 -0.00828674 -0.0124661 -0.011291 -0.0169955 -0.0124661 -0.018674 -0.00828674 -0.0124661 -0.00914519 -0.0136782 -0.0124661 -0.018674 -0.0136782 -0.0203811 -0.0169955 -0.0252811 -0.018674 -0.0276029 -0.0252811 -0.0368791 -0.0276029 -0.0401019 -0.018674 -0.0276029 -0.0203811 -0.0300098 -0.0276029 -0.0401019 -0.0300098 -0.0434344 -0.0305844 -0.0438629 -0.033662 -0.0482132 -0.0438629 -0.0612989 -0.0482132 -0.0670071 -0.033662 -0.0482132 -0.0368791 -0.0525441 -0.0482132 -0.0670071 -0.0525441 -0.0728226 -0.0612989 -0.0828137 -0.0670071 -0.0903981 -0.0828137 -0.108123 -0.0903981 -0.117541 -0.0670071 -0.0903981 -0.0728226 -0.0977817 -0.0903981 -0.117541 -0.0977817 -0.126824 -0.0368791 -0.0525441 -0.0401019 -0.0569202 -0.0525441 -0.0728226 -0.0569202 -0.0786388 -0.0401019 -0.0569202 -0.0434344 -0.0614196 -0.0569202 -0.0786388 -0.0614196 -0.0845446 -0.0728226 -0.0977817 -0.0786388 -0.105297 -0.0977817 -0.126824 -0.105297 -0.136122 -0.0786388 -0.105297 -0.0845446 -0.112763 -0.105297 -0.136122 -0.112763 -0.145272 0 0 -0.00803048 -0.0104616 0 0 -0.0104616 -0.0129281 -0.00803048 -0.0104616 -0.0162117 -0.0210487 -0.0104616 -0.0129281 -0.0210487 -0.0260171 0 0 -0.0129281 -0.0151616 0 0 -0.0151616 -0.0166651 -0.0129281 -0.0151616 -0.0260171 -0.0304236 -0.0151616 -0.0166651 -0.0304236 -0.0335298 -0.0162117 -0.0210487 -0.0244831 -0.0317571 -0.0210487 -0.0260171 -0.0317571 -0.0392355 -0.0244831 -0.0317571 -0.0330849 -0.0427986 -0.0317571 -0.0392355 -0.0427986 -0.0526034 -0.0260171 -0.0304236 -0.0392355 -0.0459109 -0.0304236 -0.0335298 -0.0459109 -0.0504914 -0.0392355 -0.0459109 -0.0526034 -0.0614035 -0.0459109 -0.0504914 -0.0614035 -0.0674166 0 0 -0.0166651 -0.0170487 0 0 -0.0170487 -0.0158244 -0.0166651 -0.0170487 -0.0335298 -0.0342868 -0.0170487 -0.0158244 -0.0342868 -0.0319237 0 0 -0.0158244 -0.0128018 0 0 -0.0128018 -0.00788375 -0.0158244 -0.0128018 -0.0319237 -0.0257279 -0.0128018 -0.00788375 -0.0257279 -0.015847 -0.0335298 -0.0342868 -0.0504914 -0.0516044 -0.0342868 -0.0319237 -0.0516044 -0.0479465 -0.0504914 -0.0516044 -0.0674166 -0.0689485 -0.0516044 -0.0479465 -0.0689485 -0.0641458 -0.0319237 -0.0257279 -0.0479465 -0.0388456 -0.0257279 -0.015847 -0.0388456 -0.0241031 -0.0479465 -0.0388456 -0.0641458 -0.0519638 -0.0388456 -0.0241031 -0.0519638 -0.032348 -0.0330849 -0.0427986 -0.0418421 -0.0538693 -0.0427986 -0.0526034 -0.0538693 -0.066248 -0.0418421 -0.0538693 -0.0510038 -0.065413 -0.0538693 -0.066248 -0.065413 -0.0800241 -0.0526034 -0.0614035 -0.066248 -0.0771624 -0.0614035 -0.0674166 -0.0771624 -0.084716 -0.066248 -0.0771624 -0.0800241 -0.0929351 -0.0771624 -0.084716 -0.0929351 -0.101679 -0.0510038 -0.065413 -0.0599688 -0.0768025 -0.065413 -0.0800241 -0.0768025 -0.0937158 -0.0599688 -0.0768025 -0.0695041 -0.0884346 -0.0768025 -0.0937158 -0.0884346 -0.107694 -0.0800241 -0.0929351 -0.0937158 -0.108791 -0.0929351 -0.101679 -0.108791 -0.118811 -0.0937158 -0.108791 -0.107694 -0.124389 -0.108791 -0.118811 -0.124389 -0.135763 -0.0674166 -0.0689485 -0.084716 -0.0863189 -0.0689485 -0.0641458 -0.0863189 -0.0802315 -0.084716 -0.0863189 -0.101679 -0.103681 -0.0863189 -0.0802315 -0.103681 -0.096239 -0.0641458 -0.0519638 -0.0802315 -0.0648846 -0.0519638 -0.032348 -0.0648846 -0.0405933 -0.0802315 -0.0648846 -0.096239 -0.0780609 -0.0648846 -0.0405933 -0.0780609 -0.0487269 -0.101679 -0.103681 -0.118811 -0.12089 -0.103681 -0.096239 -0.12089 -0.112048 -0.118811 -0.12089 -0.135763 -0.137784 -0.12089 -0.112048 -0.137784 -0.12784 -0.096239 -0.0780609 -0.112048 -0.0907032 -0.0780609 -0.0487269 -0.0907032 -0.0569596 -0.112048 -0.0907032 -0.12784 -0.103434 -0.0907032 -0.0569596 -0.103434 -0.0651634 0 0 -0.00788375 -0.00139408 0 0 -0.00139408 0.00606407 -0.00788375 -0.00139408 -0.015847 -0.00284883 -0.00139408 0.00606407 -0.00284883 0.0118855 0 0 0.00606407 0.0136534 0 0 0.0136534 0.0204811 0.00606407 0.0136534 0.0118855 0.0269084 0.0136534 0.0204811 0.0269084 0.0407362 -0.015847 -0.00284883 -0.0241031 -0.00478062 -0.00284883 0.0118855 -0.00478062 0.0174988 -0.0241031 -0.00478062 -0.032348 -0.00658941 -0.00478062 0.0174988 -0.00658941 0.0226812 0.0118855 0.0269084 0.0174988 0.0400062 0.0269084 0.0407362 0.0400062 0.0606043 0.0174988 0.0400062 0.0226812 0.052603 0.0400062 0.0606043 0.052603 0.0798915 0 0 0.0204811 0.0262008 0 0 0.0262008 0.0305864 0.0204811 0.0262008 0.0407362 0.0522215 0.0262008 0.0305864 0.0522215 0.0611793 0 0 0.0305864 0.0341178 0 0 0.0341178 0.0368204 0.0305864 0.0341178 0.0611793 0.0678525 0.0341178 0.0368204 0.0678525 0.0734306 0.0407362 0.0522215 0.0606043 0.0776428 0.0522215 0.0611793 0.0776428 0.091039 0.0606043 0.0776428 0.0798915 0.102879 0.0776428 0.091039 0.102879 0.12053 0.0611793 0.0678525 0.091039 0.101411 0.0678525 0.0734306 0.101411 0.109546 0.091039 0.101411 0.12053 0.134279 0.101411 0.109546 0.134279 0.145194 -0.032348 -0.00658941 -0.0405933 -0.00859346 -0.00658941 0.0226812 -0.00859346 0.0278874 -0.0405933 -0.00859346 -0.0487269 -0.0106569 -0.00859346 0.0278874 -0.0106569 0.0329979 0.0226812 0.052603 0.0278874 0.0650209 0.052603 0.0798915 0.0650209 0.0990676 0.0278874 0.0650209 0.0329979 0.0770862 0.0650209 0.0990676 0.0770862 0.117734 -0.0487269 -0.0106569 -0.0569596 -0.0127873 -0.0106569 0.0329979 -0.0127873 0.0373228 -0.0569596 -0.0127873 -0.0651634 -0.015154 -0.0127873 0.0373228 -0.015154 0.041584 0.0329979 0.0770862 0.0373228 0.0886352 0.0770862 0.117734 0.0886352 0.135385 0.0373228 0.0886352 0.041584 0.0991679 0.0886352 0.135385 0.0991679 0.152221 0.0798915 0.102879 0.0990676 0.127376 0.102879 0.12053 0.127376 0.149802 0.0990676 0.127376 0.117734 0.151628 0.127376 0.149802 0.151628 0.178153 0.12053 0.134279 0.149802 0.166729 0.134279 0.145194 0.166729 0.180369 0.149802 0.166729 0.178153 0.198577 0.166729 0.180369 0.198577 0.214281 0.117734 0.151628 0.135385 0.174912 0.151628 0.178153 0.174912 0.205506 0.135385 0.174912 0.152221 0.196584 0.174912 0.205506 0.196584 0.231909 0.178153 0.198577 0.205506 0.229092 0.198577 0.214281 0.229092 0.247239 0.205506 0.229092 0.231909 0.258426 0.229092 0.247239 0.258426 0.278903 -0.0695041 -0.0884346 -0.0791739 -0.100433 -0.0884346 -0.107694 -0.100433 -0.121821 -0.0791739 -0.100433 -0.0889038 -0.112494 -0.100433 -0.121821 -0.112494 -0.135887 -0.107694 -0.124389 -0.121821 -0.140492 -0.124389 -0.135763 -0.140492 -0.152737 -0.121821 -0.140492 -0.135887 -0.156389 -0.140492 -0.152737 -0.156389 -0.169628 -0.0889038 -0.112494 -0.0987305 -0.124248 -0.112494 -0.135887 -0.124248 -0.14981 -0.0987305 -0.124248 -0.108123 -0.135681 -0.124248 -0.14981 -0.135681 -0.163022 -0.135887 -0.156389 -0.14981 -0.171582 -0.156389 -0.169628 -0.171582 -0.18579 -0.14981 -0.171582 -0.163022 -0.186406 -0.171582 -0.18579 -0.186406 -0.201086 -0.135763 -0.137784 -0.152737 -0.154906 -0.137784 -0.12784 -0.154906 -0.14321 -0.152737 -0.154906 -0.169628 -0.171656 -0.154906 -0.14321 -0.171656 -0.158551 -0.12784 -0.103434 -0.14321 -0.116109 -0.103434 -0.0651634 -0.116109 -0.0731484 -0.14321 -0.116109 -0.158551 -0.12823 -0.116109 -0.0731484 -0.12823 -0.0810881 -0.169628 -0.171656 -0.18579 -0.187372 -0.171656 -0.158551 -0.187372 -0.172897 -0.18579 -0.187372 -0.201086 -0.202364 -0.187372 -0.172897 -0.202364 -0.185849 -0.158551 -0.12823 -0.172897 -0.139555 -0.12823 -0.0810881 -0.139555 -0.0881126 -0.172897 -0.139555 -0.185849 -0.149689 -0.139555 -0.0881126 -0.149689 -0.0940369 -0.108123 -0.135681 -0.117541 -0.147095 -0.135681 -0.163022 -0.147095 -0.176021 -0.117541 -0.147095 -0.126824 -0.158157 -0.147095 -0.176021 -0.158157 -0.188871 -0.163022 -0.186406 -0.176021 -0.20057 -0.186406 -0.201086 -0.20057 -0.215699 -0.176021 -0.20057 -0.188871 -0.214547 -0.20057 -0.215699 -0.214547 -0.230048 -0.126824 -0.158157 -0.136122 -0.169205 -0.158157 -0.188871 -0.169205 -0.201273 -0.136122 -0.169205 -0.145272 -0.179936 -0.169205 -0.201273 -0.179936 -0.213382 -0.188871 -0.214547 -0.201273 -0.227821 -0.214547 -0.230048 -0.227821 -0.243385 -0.201273 -0.227821 -0.213382 -0.240689 -0.227821 -0.243385 -0.240689 -0.256227 -0.201086 -0.202364 -0.215699 -0.216433 -0.202364 -0.185849 -0.216433 -0.198365 -0.215699 -0.216433 -0.230048 -0.229886 -0.216433 -0.198365 -0.229886 -0.209739 -0.185849 -0.149689 -0.198365 -0.159066 -0.149689 -0.0940369 -0.159066 -0.099302 -0.198365 -0.159066 -0.209739 -0.1674 -0.159066 -0.099302 -0.1674 -0.103766 -0.230048 -0.229886 -0.243385 -0.242438 -0.229886 -0.209739 -0.242438 -0.22043 -0.243385 -0.242438 -0.256227 -0.254128 -0.242438 -0.22043 -0.254128 -0.229907 -0.209739 -0.1674 -0.22043 -0.175072 -0.1674 -0.103766 -0.175072 -0.10753 -0.22043 -0.175072 -0.229907 -0.181447 -0.175072 -0.10753 -0.181447 -0.110122 -0.0651634 -0.015154 -0.0731484 -0.0178358 -0.015154 0.041584 -0.0178358 0.045376 -0.0731484 -0.0178358 -0.0810881 -0.0199466 -0.0178358 0.045376 -0.0199466 0.049053 0.041584 0.0991679 0.045376 0.109342 0.0991679 0.152221 0.109342 0.16843 0.045376 0.109342 0.049053 0.119474 0.109342 0.16843 0.119474 0.183933 -0.0810881 -0.0199466 -0.0881126 -0.0217731 -0.0199466 0.049053 -0.0217731 0.0531486 -0.0881126 -0.0217731 -0.0940369 -0.022975 -0.0217731 0.0531486 -0.022975 0.0574331 0.049053 0.119474 0.0531486 0.129069 0.119474 0.183933 0.129069 0.199294 0.0531486 0.129069 0.0574331 0.138963 0.129069 0.199294 0.138963 0.214176 0.152221 0.196584 0.16843 0.218086 0.196584 0.231909 0.218086 0.256996 0.16843 0.218086 0.183933 0.238693 0.218086 0.256996 0.238693 0.281774 0.231909 0.258426 0.256996 0.286823 0.258426 0.278903 0.286823 0.309089 0.256996 0.286823 0.281774 0.314581 0.286823 0.309089 0.314581 0.338846 0.183933 0.238693 0.199294 0.258584 0.238693 0.281774