# vtk DataFile Version 3.0
#This file was generated by the deal.II library on 2021/4/23 at 0:45:50
ASCII
DATASET UNSTRUCTURED_GRID

FIELD FieldData 2
CYCLE 1 1 int
249
TIME 1 1 double
0.498
POINTS 7332 double
-1 -1 0
-0.75 -1 0
-1 -0.75 0
-0.75 -0.75 0
-0.75 -1 0
-0.5 -1 0
-0.75 -0.75 0
-0.5 -0.75 0
-1 -0.75 0
-0.75 -0.75 0
-1 -0.5 0
-0.75 -0.5 0
-1 -0.5 0
-0.75 -0.5 0
-1 -0.25 0
-0.75 -0.25 0
-0.625 -0.25 0
-0.5 -0.25 0
-0.625 -0.125 0
-0.5 -0.125 0
0 -1 0
0.125 -1 0
0 -0.875 0
0.125 -0.875 0
0.125 -1 0
0.25 -1 0
0.125 -0.875 0
0.25 -0.875 0
-0.5 -0.75 0
-0.375 -0.75 0
-0.5 -0.625 0
-0.375 -0.625 0
-0.5 -0.25 0
-0.375 -0.25 0
-0.5 -0.125 0
-0.375 -0.125 0
-0.625 0 0
-0.5 0 0
-0.625 0.125 0
-0.5 0.125 0
-0.5 -1 0
-0.375 -1 0
-0.5 -0.875 0
-0.375 -0.875 0
-0.375 -1 0
-0.25 -1 0
-0.375 -0.875 0
-0.25 -0.875 0
-0.5 -0.875 0
-0.375 -0.875 0
-0.5 -0.75 0
-0.375 -0.75 0
-0.5 -0.375 0
-0.375 -0.375 0
-0.5 -0.25 0
-0.375 -0.25 0
-1 0 0
-0.875 0 0
-1 0.125 0
-0.875 0.125 0
-1 0.125 0
-0.875 0.125 0
-1 0.25 0
-0.875 0.25 0
-1 0.25 0
-0.875 0.25 0
-1 0.375 0
-0.875 0.375 0
-0.875 0.25 0
-0.75 0.25 0
-0.875 0.375 0
-0.75 0.375 0
-1 0.375 0
-0.875 0.375 0
-1 0.5 0
-0.875 0.5 0
-0.875 0.375 0
-0.75 0.375 0
-0.875 0.5 0
-0.75 0.5 0
-1 0.5 0
-0.875 0.5 0
-1 0.625 0
-0.875 0.625 0
-0.875 0.5 0
-0.75 0.5 0
-0.875 0.625 0
-0.75 0.625 0
-1 0.625 0
-0.875 0.625 0
-1 0.75 0
-0.875 0.75 0
-0.75 -0.75 0
-0.625 -0.75 0
-0.75 -0.625 0
-0.625 -0.625 0
-0.625 -0.75 0
-0.5 -0.75 0
-0.625 -0.625 0
-0.5 -0.625 0
-0.75 -0.625 0
-0.625 -0.625 0
-0.75 -0.5 0
-0.625 -0.5 0
-0.625 -0.625 0
-0.5 -0.625 0
-0.625 -0.5 0
-0.5 -0.5 0
-0.25 0.375 0
-0.125 0.375 0
-0.25 0.5 0
-0.125 0.5 0
-0.125 0.375 0
0 0.375 0
-0.125 0.5 0
0 0.5 0
-0.25 -1 0
-0.125 -1 0
-0.25 -0.875 0
-0.125 -0.875 0
-0.125 -1 0
0 -1 0
-0.125 -0.875 0
0 -0.875 0
-0.25 -0.875 0
-0.125 -0.875 0
-0.25 -0.75 0
-0.125 -0.75 0
-0.75 -0.5 0
-0.625 -0.5 0
-0.75 -0.375 0
-0.625 -0.375 0
-0.625 -0.5 0
-0.5 -0.5 0
-0.625 -0.375 0
-0.5 -0.375 0
-0.75 -0.375 0
-0.625 -0.375 0
-0.75 -0.25 0
-0.625 -0.25 0
-0.625 -0.375 0
-0.5 -0.375 0
-0.625 -0.25 0
-0.5 -0.25 0
-1 -0.25 0
-0.875 -0.25 0
-1 -0.125 0
-0.875 -0.125 0
-0.875 -0.25 0
-0.75 -0.25 0
-0.875 -0.125 0
-0.75 -0.125 0
-1 -0.125 0
-0.875 -0.125 0
-1 0 0
-0.875 0 0
-0.875 -0.125 0
-0.75 -0.125 0
-0.875 0 0
-0.75 0 0
-1 0.75 0
-0.875 0.75 0
-1 0.875 0
-0.875 0.875 0
-0.875 0.75 0
-0.75 0.75 0
-0.875 0.875 0
-0.75 0.875 0
-1 0.875 0
-0.875 0.875 0
-1 1 0
-0.875 1 0
-0.875 0.875 0
-0.75 0.875 0
-0.875 1 0
-0.75 1 0
-0.375 0.375 0
-0.25 0.375 0
-0.375 0.5 0
-0.25 0.5 0
-0.25 0.75 0
-0.125 0.75 0
-0.25 0.875 0
-0.125 0.875 0
-0.125 0.75 0
0 0.75 0
-0.125 0.875 0
0 0.875 0
-0.25 0.875 0
-0.125 0.875 0
-0.25 1 0
-0.125 1 0
-0.125 0.875 0
0 0.875 0
-0.125 1 0
0 1 0
-0.625 0.625 0
-0.5 0.625 0
-0.625 0.75 0
-0.5 0.75 0
-0.625 0.75 0
-0.5 0.75 0
-0.625 0.875 0
-0.5 0.875 0
-0.75 0.875 0
-0.625 0.875 0
-0.75 1 0
-0.625 1 0
-0.625 0.875 0
-0.5 0.875 0
-0.625 1 0
-0.5 1 0
-0.5 0.5 0
-0.375 0.5 0
-0.5 0.625 0
-0.375 0.625 0
-0.375 0.5 0
-0.25 0.5 0
-0.375 0.625 0
-0.25 0.625 0
-0.5 0.625 0
-0.375 0.625 0
-0.5 0.75 0
-0.375 0.75 0
-0.375 0.625 0
-0.25 0.625 0
-0.375 0.75 0
-0.25 0.75 0
-0.25 0.5 0
-0.125 0.5 0
-0.25 0.625 0
-0.125 0.625 0
-0.125 0.5 0
0 0.5 0
-0.125 0.625 0
0 0.625 0
-0.125 0.625 0
0 0.625 0
-0.125 0.75 0
0 0.75 0
-0.5 0.75 0
-0.375 0.75 0
-0.5 0.875 0
-0.375 0.875 0
-0.5 0.875 0
-0.375 0.875 0
-0.5 1 0
-0.375 1 0
-0.375 0.875 0
-0.25 0.875 0
-0.375 1 0
-0.25 1 0
0.125 -0.5 0
0.1875 -0.5 0
0.125 -0.4375 0
0.1875 -0.4375 0
0.125 -0.375 0
0.1875 -0.375 0
0.125 -0.3125 0
0.1875 -0.3125 0
0.1875 -0.3125 0
0.25 -0.3125 0
0.1875 -0.25 0
0.25 -0.25 0
0.1875 -0.75 0
0.25 -0.75 0
0.1875 -0.6875 0
0.25 -0.6875 0
0.5 -0.875 0
0.5625 -0.875 0
0.5 -0.8125 0
0.5625 -0.8125 0
0.5625 -0.875 0
0.625 -0.875 0
0.5625 -0.8125 0
0.625 -0.8125 0
0.8125 -0.875 0
0.875 -0.875 0
0.8125 -0.8125 0
0.875 -0.8125 0
0 -0.625 0
0.0625 -0.625 0
0 -0.5625 0
0.0625 -0.5625 0
0.1875 -0.625 0
0.25 -0.625 0
0.1875 -0.5625 0
0.25 -0.5625 0
0.125 -0.5625 0
0.1875 -0.5625 0
0.125 -0.5 0
0.1875 -0.5 0
0.1875 -0.5625 0
0.25 -0.5625 0
0.1875 -0.5 0
0.25 -0.5 0
-0.0625 -0.5 0
0 -0.5 0
-0.0625 -0.4375 0
0 -0.4375 0
-0.25 -0.75 0
-0.1875 -0.75 0
-0.25 -0.6875 0
-0.1875 -0.6875 0
-0.1875 -0.75 0
-0.125 -0.75 0
-0.1875 -0.6875 0
-0.125 -0.6875 0
-0.25 -0.6875 0
-0.1875 -0.6875 0
-0.25 -0.625 0
-0.1875 -0.625 0
-0.1875 -0.6875 0
-0.125 -0.6875 0
-0.1875 -0.625 0
-0.125 -0.625 0
0.375 -0.875 0
0.4375 -0.875 0
0.375 -0.8125 0
0.4375 -0.8125 0
0.4375 -0.8125 0
0.5 -0.8125 0
0.4375 -0.75 0
0.5 -0.75 0
0.25 -0.75 0
0.3125 -0.75 0
0.25 -0.6875 0
0.3125 -0.6875 0
0.25 -0.6875 0
0.3125 -0.6875 0
0.25 -0.625 0
0.3125 -0.625 0
0.5 -1 0
0.5625 -1 0
0.5 -0.9375 0
0.5625 -0.9375 0
0.5625 -1 0
0.625 -1 0
0.5625 -0.9375 0
0.625 -0.9375 0
-0.125 -0.125 0
-0.0625 -0.125 0
-0.125 -0.0625 0
-0.0625 -0.0625 0
-0.125 -0.0625 0
-0.0625 -0.0625 0
-0.125 0 0
-0.0625 0 0
0.75 -1 0
0.8125 -1 0
0.75 -0.9375 0
0.8125 -0.9375 0
0.8125 -1 0
0.875 -1 0
0.8125 -0.9375 0
0.875 -0.9375 0
0.75 -0.9375 0
0.8125 -0.9375 0
0.75 -0.875 0
0.8125 -0.875 0
0.8125 -0.9375 0
0.875 -0.9375 0
0.8125 -0.875 0
0.875 -0.875 0
0.875 -0.875 0
0.9375 -0.875 0
0.875 -0.8125 0
0.9375 -0.8125 0
0.9375 -0.875 0
1 -0.875 0
0.9375 -0.8125 0
1 -0.8125 0
0.875 -0.8125 0
0.9375 -0.8125 0
0.875 -0.75 0
0.9375 -0.75 0
0.9375 -0.8125 0
1 -0.8125 0
0.9375 -0.75 0
1 -0.75 0
-0.625 0.125 0
-0.5625 0.125 0
-0.625 0.1875 0
-0.5625 0.1875 0
-0.5625 0.125 0
-0.5 0.125 0
-0.5625 0.1875 0
-0.5 0.1875 0
-0.625 0.1875 0
-0.5625 0.1875 0
-0.625 0.25 0
-0.5625 0.25 0
-0.125 0 0
-0.0625 0 0
-0.125 0.0625 0
-0.0625 0.0625 0
-0.125 0.0625 0
-0.0625 0.0625 0
-0.125 0.125 0
-0.0625 0.125 0
0 -0.125 0
0.0625 -0.125 0
0 -0.0625 0
0.0625 -0.0625 0
0.125 -0.125 0
0.1875 -0.125 0
0.125 -0.0625 0
0.1875 -0.0625 0
0.1875 -0.125 0
0.25 -0.125 0
0.1875 -0.0625 0
0.25 -0.0625 0
0.125 -0.0625 0
0.1875 -0.0625 0
0.125 0 0
0.1875 0 0
0.1875 -0.0625 0
0.25 -0.0625 0
0.1875 0 0
0.25 0 0
0 -0.375 0
0.0625 -0.375 0
0 -0.3125 0
0.0625 -0.3125 0
0.0625 -0.375 0
0.125 -0.375 0
0.0625 -0.3125 0
0.125 -0.3125 0
0 -0.3125 0
0.0625 -0.3125 0
0 -0.25 0
0.0625 -0.25 0
0.0625 -0.3125 0
0.125 -0.3125 0
0.0625 -0.25 0
0.125 -0.25 0
-0.25 -0.625 0
-0.1875 -0.625 0
-0.25 -0.5625 0
-0.1875 -0.5625 0
-0.1875 -0.625 0
-0.125 -0.625 0
-0.1875 -0.5625 0
-0.125 -0.5625 0
-0.25 -0.5625 0
-0.1875 -0.5625 0
-0.25 -0.5 0
-0.1875 -0.5 0
-0.1875 -0.5625 0
-0.125 -0.5625 0
-0.1875 -0.5 0
-0.125 -0.5 0
-0.0625 -0.6875 0
0 -0.6875 0
-0.0625 -0.625 0
0 -0.625 0
-0.75 -0.25 0
-0.6875 -0.25 0
-0.75 -0.1875 0
-0.6875 -0.1875 0
-0.6875 -0.25 0
-0.625 -0.25 0
-0.6875 -0.1875 0
-0.625 -0.1875 0
-0.75 -0.1875 0
-0.6875 -0.1875 0
-0.75 -0.125 0
-0.6875 -0.125 0
-0.6875 -0.1875 0
-0.625 -0.1875 0
-0.6875 -0.125 0
-0.625 -0.125 0
-0.5625 0.4375 0
-0.5 0.4375 0
-0.5625 0.5 0
-0.5 0.5 0
-0.75 -0.125 0
-0.6875 -0.125 0
-0.75 -0.0625 0
-0.6875 -0.0625 0
-0.6875 -0.125 0
-0.625 -0.125 0
-0.6875 -0.0625 0
-0.625 -0.0625 0
-0.75 -0.0625 0
-0.6875 -0.0625 0
-0.75 0 0
-0.6875 0 0
-0.6875 -0.0625 0
-0.625 -0.0625 0
-0.6875 0 0
-0.625 0 0
-0.625 -0.125 0
-0.5625 -0.125 0
-0.625 -0.0625 0
-0.5625 -0.0625 0
-0.5625 -0.125 0
-0.5 -0.125 0
-0.5625 -0.0625 0
-0.5 -0.0625 0
-0.625 -0.0625 0
-0.5625 -0.0625 0
-0.625 0 0
-0.5625 0 0
-0.5625 -0.0625 0
-0.5 -0.0625 0
-0.5625 0 0
-0.5 0 0
-0.25 0 0
-0.1875 0 0
-0.25 0.0625 0
-0.1875 0.0625 0
-0.25 -0.5 0
-0.1875 -0.5 0
-0.25 -0.4375 0
-0.1875 -0.4375 0
-0.1875 -0.5 0
-0.125 -0.5 0
-0.1875 -0.4375 0
-0.125 -0.4375 0
-0.25 -0.4375 0
-0.1875 -0.4375 0
-0.25 -0.375 0
-0.1875 -0.375 0
-0.1875 -0.4375 0
-0.125 -0.4375 0
-0.1875 -0.375 0
-0.125 -0.375 0
-0.125 -0.875 0
-0.0625 -0.875 0
-0.125 -0.8125 0
-0.0625 -0.8125 0
-0.0625 -0.875 0
0 -0.875 0
-0.0625 -0.8125 0
0 -0.8125 0
-0.125 -0.8125 0
-0.0625 -0.8125 0
-0.125 -0.75 0
-0.0625 -0.75 0
-0.0625 -0.8125 0
0 -0.8125 0
-0.0625 -0.75 0
0 -0.75 0
-0.4375 0.375 0
-0.375 0.375 0
-0.4375 0.4375 0
-0.375 0.4375 0
-0.5 0.4375 0
-0.4375 0.4375 0
-0.5 0.5 0
-0.4375 0.5 0
-0.4375 0.4375 0
-0.375 0.4375 0
-0.4375 0.5 0
-0.375 0.5 0
-0.25 -0.375 0
-0.1875 -0.375 0
-0.25 -0.3125 0
-0.1875 -0.3125 0
-0.1875 -0.375 0
-0.125 -0.375 0
-0.1875 -0.3125 0
-0.125 -0.3125 0
-0.25 -0.3125 0
-0.1875 -0.3125 0
-0.25 -0.25 0
-0.1875 -0.25 0
-0.1875 -0.3125 0
-0.125 -0.3125 0
-0.1875 -0.25 0
-0.125 -0.25 0
-0.625 0.5 0
-0.5625 0.5 0
-0.625 0.5625 0
-0.5625 0.5625 0
-0.5625 0.5 0
-0.5 0.5 0
-0.5625 0.5625 0
-0.5 0.5625 0
-0.625 0.5625 0
-0.5625 0.5625 0
-0.625 0.625 0
-0.5625 0.625 0
-0.5625 0.5625 0
-0.5 0.5625 0
-0.5625 0.625 0
-0.5 0.625 0
0 -0.875 0
0.0625 -0.875 0
0 -0.8125 0
0.0625 -0.8125 0
0.0625 -0.875 0
0.125 -0.875 0
0.0625 -0.8125 0
0.125 -0.8125 0
0 -0.8125 0
0.0625 -0.8125 0
0 -0.75 0
0.0625 -0.75 0
0.0625 -0.8125 0
0.125 -0.8125 0
0.0625 -0.75 0
0.125 -0.75 0
0.625 -1 0
0.6875 -1 0
0.625 -0.9375 0
0.6875 -0.9375 0
0.6875 -1 0
0.75 -1 0
0.6875 -0.9375 0
0.75 -0.9375 0
0.625 -0.9375 0
0.6875 -0.9375 0
0.625 -0.875 0
0.6875 -0.875 0
0.6875 -0.9375 0
0.75 -0.9375 0
0.6875 -0.875 0
0.75 -0.875 0
0.125 -0.875 0
0.1875 -0.875 0
0.125 -0.8125 0
0.1875 -0.8125 0
0.1875 -0.875 0
0.25 -0.875 0
0.1875 -0.8125 0
0.25 -0.8125 0
0.125 -0.8125 0
0.1875 -0.8125 0
0.125 -0.75 0
0.1875 -0.75 0
0.1875 -0.8125 0
0.25 -0.8125 0
0.1875 -0.75 0
0.25 -0.75 0
-0.375 -0.75 0
-0.3125 -0.75 0
-0.375 -0.6875 0
-0.3125 -0.6875 0
-0.3125 -0.75 0
-0.25 -0.75 0
-0.3125 -0.6875 0
-0.25 -0.6875 0
-0.375 -0.6875 0
-0.3125 -0.6875 0
-0.375 -0.625 0
-0.3125 -0.625 0
-0.3125 -0.6875 0
-0.25 -0.6875 0
-0.3125 -0.625 0
-0.25 -0.625 0
-0.5 -0.625 0
-0.4375 -0.625 0
-0.5 -0.5625 0
-0.4375 -0.5625 0
-0.4375 -0.625 0
-0.375 -0.625 0
-0.4375 -0.5625 0
-0.375 -0.5625 0
-0.5 -0.5625 0
-0.4375 -0.5625 0
-0.5 -0.5 0
-0.4375 -0.5 0
-0.4375 -0.5625 0
-0.375 -0.5625 0
-0.4375 -0.5 0
-0.375 -0.5 0
-0.375 -0.625 0
-0.3125 -0.625 0
-0.375 -0.5625 0
-0.3125 -0.5625 0
-0.3125 -0.625 0
-0.25 -0.625 0
-0.3125 -0.5625 0
[...]
POINT_DATA 7332
SCALARS U double 1
LOOKUP_TABLE default
0 0 0 9.63106e-05 0 0 9.63106e-05 0.000199711 0 9.63106e-05 0 0.00020053 0 0.00020053 0 0.000314892 0.000439482 0.000539428 0.000509819 0.000603756 0 0 0.000427959 0.000617252 0 0 0.000617252 0.000836322 0.000199711 0.000274409 0.00029645 0.000397232 0.000539428 0.000628675 0.000603756 0.000654244 0.000575645 0.000657909 0.000629475 0.000702615 0 0 9.98554e-05 0.000138457 0 0 0.000138457 0.000197479 9.98554e-05 0.000138457 0.000199711 0.000274409 0.000467277 0.000579087 0.000539428 0.000628675 0 0.000225751 0 0.000250934 0 0.000250934 0 0.000268906 0 0.000268906 0 0.000269989 0.000268906 0.000499731 0.000269989 0.000500923 0 0.000269989 0 0.000251875 0.000269989 0.000500923 0.000251875 0.000467202 0 0.000251875 0 0.000212673 0.000251875 0.000467202 0.000212673 0.000394386 0 0.000212673 0 0.000153544 9.63106e-05 0.000148011 0.000148421 0.000219285 0.000148011 0.000199711 0.000219285 0.00029645 0.000148421 0.000219285 0.00020053 0.000292894 0.000219285 0.00029645 0.000292894 0.000387334 0.000524307 0.000286747 0.000479969 0.000260968 0.000286747 0 0.000260968 0 0 0 0.000197479 0.00029034 0 0 0.00029034 0.000427959 0.000197479 0.00029034 0.000385552 0.000564501 0.00020053 0.000292894 0.000257711 0.000366314 0.000292894 0.000387334 0.000366314 0.000467277 0.000257711 0.000366314 0.000314892 0.000439482 0.000366314 0.000467277 0.000439482 0.000539428 0 0.000157446 0 0.000194453 0.000157446 0.000314892 0.000194453 0.000369996 0 0.000194453 0 0.000225751 0.000194453 0.000369996 0.000225751 0.000425726 0 0.000153544 0 8.00068e-05 0.000153544 0.000285437 8.00068e-05 0.000150339 0 8.00068e-05 0 0 8.00068e-05 0.000150339 0 0 0.000673955 0.000524307 0.000624005 0.000479969 0.000291231 0.000156987 0.00015261 8.18226e-05 0.000156987 0 8.18226e-05 0 0.00015261 8.18226e-05 0 0 8.18226e-05 0 0 0 0.000519128 0.000566178 0.000377016 0.00041071 0.000377016 0.00041071 0.00019876 0.000216357 0.000150339 0.00019876 0 0 0.00019876 0.000216357 0 0 0.000668993 0.000624005 0.000566178 0.000524821 0.000624005 0.000479969 0.000524821 0.000402908 0.000566178 0.000524821 0.00041071 0.000380802 0.000524821 0.000402908 0.000380802 0.000291231 0.000479969 0.000260968 0.000402908 0.000218201 0.000260968 0 0.000218201 0 0.000218201 0 0.000156987 0 0.00041071 0.000380802 0.000216357 0.00020034 0.000216357 0.00020034 0 0 0.00020034 0.00015261 0 0 0.00196207 0.00230393 0.00200319 0.00235216 0.00195978 0.00229977 0.00182927 0.00213903 0.00213903 0.00246428 0.00187718 0.00215833 0.00140693 0.00162175 0.00170837 0.00197146 0.00116219 0.00116973 0.00172388 0.00173768 0.00116973 0.00113452 0.00173768 0.00168413 0.000732395 0.000511693 0.00108779 0.000760308 0.00116716 0.00140488 0.00129 0.00155082 0.00196929 0.00227232 0.00217265 0.00250767 0.00184793 0.00217265 0.00196207 0.00230393 0.00217265 0.00250767 0.00230393 0.00266041 0.00113813 0.00137236 0.0011735 0.00140704 0.000385552 0.000475027 0.00047394 0.000570653 0.000475027 0.000564501 0.000570653 0.000688653 0.00047394 0.000570653 0.000551773 0.000661257 0.000570653 0.000688653 0.000661257 0.000796369 0.0010391 0.00111403 0.00154096 0.00165472 0.00165472 0.00172388 0.00216672 0.00225945 0.00162175 0.00183089 0.00197146 0.00222677 0.00197146 0.00222677 0.00227232 0.00256787 0 0 0.000583933 0.000588387 0 0 0.000588387 0.000570143 0.000690121 0.000703004 0.00056581 0.000502107 0.00056581 0.000502107 0.000456583 0.000316195 0 0 0.000459355 0.00036802 0 0 0.00036802 0.000257183 0.000459355 0.00036802 0.000914433 0.000732395 0.00036802 0.000257183 0.000732395 0.000511693 0.000511693 0.000263016 0.000760308 0.00039145 0.000263016 0 0.00039145 0 0.000760308 0.00039145 0.000998368 0.000513231 0.00039145 0 0.000513231 0 0.000629475 0.000666045 0.000645272 0.0006923 0.000666045 0.000702615 0.0006923 0.00071528 0.000645272 0.0006923 0.00065862 0.00070378 0.000456583 0.000316195 0.000377059 0.000214525 0.000377059 0.000214525 0.000334895 0.000177574 0.000741038 0.000812793 0.00044034 0.000434269 0.000923419 0.00106218 0.00048029 0.000548327 0.00106218 0.0012175 0.000548327 0.000626473 0.00048029 0.000548327 0 0 0.000548327 0.000626473 0 0 0.00138838 0.00165359 0.00131223 0.00155123 0.00165359 0.00195978 0.00155123 0.00182927 0.00131223 0.00155123 0.00117781 0.00137614 0.00155123 0.00182927 0.00137614 0.0016122 0.000551773 0.000661257 0.00061866 0.000737213 0.000661257 0.000796369 0.000737213 0.000883372 0.00061866 0.000737213 0.000673426 0.000795998 0.000737213 0.000883372 0.000795998 0.000948412 0.000835324 0.00101351 0.000962856 0.00116716 0.000314892 0.000377187 0.000342444 0.000412671 0.000377187 0.000439482 0.000412671 0.00047465 0.000342444 0.000412671 0.000369996 0.000445234 0.000412671 0.00047465 0.000445234 0.000509819 0.000682833 0.000697293 0.000650638 0.000668993 0.000369996 0.000445234 0.000397861 0.000476891 0.000445234 0.000509819 0.000476891 0.000541739 0.000397861 0.000476891 0.000425726 0.000507264 0.000476891 0.000541739 0.000507264 0.000575645 0.000509819 0.000556787 0.000541739 0.000592073 0.000556787 0.000603756 0.000592073 0.000629198 0.000541739 0.000592073 0.000575645 0.000616777 0.000592073 0.000629198 0.000616777 0.000657909 0.00060553 0.000545367 0.000578703 0.000494386 0.000673426 0.000795998 0.000712387 0.000833012 0.000795998 0.000948412 0.000833012 0.000982499 0.000712387 0.000833012 0.00073583 0.000847795 0.000833012 0.000982499 0.000847795 0.000988744 0.00029034 0.000359149 0.00042742 0.000525049 0.000359149 0.000427959 0.000525049 0.000637971 0.00042742 0.000525049 0.000564501 0.000686381 0.000525049 0.000637971 0.000686381 0.000833519 0.000707956 0.000673955 0.000688058 0.00064898 0.000697293 0.000688058 0.000668993 0.000646499 0.000688058 0.00064898 0.000646499 0.000624005 0.00073583 0.000847795 0.000741609 0.000837539 0.000847795 0.000988744 0.000837539 0.000957856 0.000741609 0.000837539 0.000732095 0.000804694 0.000837539 0.000957856 0.000804694 0.000897572 0.000611507 0.000650638 0.00056911 0.000606695 0.000650638 0.000668993 0.000606695 0.000617585 0.00056911 0.000606695 0.000519128 0.000542653 0.000606695 0.000617585 0.000542653 0.000566178 0.000427959 0.000522606 0.000637971 0.000768904 0.000522606 0.000617252 0.000768904 0.000916264 0.000637971 0.000768904 0.000833519 0.00100531 0.000768904 0.000916264 0.00100531 0.00119698 0 0 0.000570143 0.000527147 0 0 0.000527147 0.000459355 0.000570143 0.000527147 0.00113452 0.00104942 0.000527147 0.000459355 0.00104942 0.000914433 0.000617252 0.000726787 0.000916264 0.00107558 0.000726787 0.000836322 0.00107558 0.00123948 0.000916264 0.00107558 0.00119698 0.00140693 0.00107558 0.00123948 0.00140693 0.00162175 0.000274409 0.000323334 0.00033582 0.000397582 0.000323334 0.000385552 0.000397582 0.00047394 0.00033582 0.000397582 0.000397232 0.00046608 0.000397582 0.00047394 0.00046608 0.000551773 0.00029645 0.000346841 0.000341892 0.000393743 0.000346841 0.000397232 0.000393743 0.000452986 0.000341892 0.000393743 0.000387334 0.000439927 0.000393743 0.000452986 0.000439927 0.000501927 0.000397232 0.00046608 0.000452986 0.000526717 0.00046608 0.000551773 0.000526717 0.00061866 0.000452986 0.000526717 0.000501927 0.000578596 0.000526717 0.00061866 0.000578596 0.000673426 0.000628675 0.000675491 0.00064146 0.000674403 0.000675491 0.000732095 0.000674403 0.00070844 0.00064146 0.000674403 0.000654244 0.000666745 0.000674403 0.00070844 0.000666745 0.000675981 0.000998368 0.000513231 0.001218 0.000627033 0.000513231 0 0.000627033 0 0.00117781 0.00137614 0.000986018 0.00112837 0.00137614 0.0016122 0.00112837 0.00130709 0.000986018 0.00112837 0.000741038 0.000812793 0.00112837 0.00130709 0.000812793 0.000923419 0.00141016 0.000725352 0.00155945 0.000803011 0.000725352 0 0.000803011 0 0.00155945 0.000803011 0.00166088 0.000856334 0.000803011 0 0.000856334 0 0.000603756 0.000629 0.000629198 0.000651754 0.000629 0.000654244 0.000651754 0.000660447 0.000629198 0.000651754 0.000657909 0.000670631 0.000651754 0.000660447 0.000670631 0.000667125 0.00227232 0.00256787 0.00250767 0.0028353 0.000654244 0.000666745 0.000660447 0.000655854 0.000666745 0.000675981 0.000655854 0.000639723 0.000660447 0.000655854 0.000667125 0.000645212 0.000655854 0.000639723 0.000645212 0.00060553 0.0020189 0.00216672 0.00245453 0.00263792 0.000425726 0.000507264 0.000448754 0.000534719 0.000507264 0.000575645 0.000534719 0.00060256 0.000448754 0.000534719 0.000469899 0.000558181 0.000534719 0.00060256 0.000558181 0.000629475 0.00151787 0.00163493 0.000782216 0.000842134 0.00163493 0.00171025 0.000842134 0.000881718 0.000782216 0.000842134 0 0 0.000842134 0.000881718 0 0 0.000469899 0.000558181 0.00048649 0.000576303 0.000558181 0.000629475 0.000576303 0.000645272 0.00048649 0.000576303 0.000499731 0.000588401 0.000576303 0.000645272 0.000588401 0.00065862 0.000138457 0.000167968 0.000206433 0.0002455 0.000167968 0.000197479 0.0002455 0.000291515 0.000206433 0.0002455 0.000274409 0.000323334 0.0002455 0.000291515 0.000323334 0.000385552 0.000657909 0.000670631 0.000680262 0.000687673 0.000670631 0.000667125 0.000687673 0.000673453 0.000680262 0.000687673 0.000702615 0.000702078 0.000687673 0.000673453 0.000702078 0.000679674 0.000667125 0.000645212 0.000673453 0.000636917 0.000645212 0.00060553 0.000636917 0.000578703 0.000673453 0.000636917 0.000679674 0.000631632 0.000636917 0.000578703 0.000631632 0.000560512 0.0020442 0.00178195 0.0024886 0.00217177 0.00178195 0.00142904 0.00217177 0.00174152 0.00142904 0.000998368 0.00174152 0.001218 0.00174152 0.001218 0.00201252 0.00141016 0.000702615 0.000702078 0.00071528 0.000712501 0.000702078 0.000679674 0.000712501 0.000684309 0.00071528 0.000712501 0.000725753 0.000718248 0.000712501 0.000684309 0.000718248 0.000685992 0.000679674 0.000631632 0.000684309 0.000628517 0.000631632 0.000560512 0.000628517 0.000548881 0.000684309 0.000628517 0.000685992 0.000625163 0.000628517 0.000548881 0.000625163 0.000540335 0.000675981 0.00068272 0.000639723 0.000610308 0.00068272 0.000690121 0.000610308 0.00056581 0.000639723 0.000610308 0.00060553 0.000545367 0.000610308 0.00056581 0.000545367 0.000456583 0.000387334 0.000439927 0.000427306 0.000482783 0.000439927 0.000501927 0.000482783 0.000544226 0.000427306 0.000482783 0.000467277 0.000523182 0.000482783 0.000544226 0.000523182 0.000579087 0.000501927 0.000578596 0.000544226 0.000619356 0.000578596 0.000673426 0.000619356 0.000712387 0.000544226 0.000619356 0.000579087 0.000649169 0.000619356 0.000712387 0.000649169 0.00073583 0.000579087 0.000649169 0.000603881 0.00066736 0.000649169 0.00073583 0.00066736 0.000741609 0.000603881 0.00066736 0.000628675 0.000675491 0.00066736 0.000741609 0.000675491 0.000732095 0 0 0.000418161 0.000473874 0 0 0.000473874 0.000522479 0.000418161 0.000473874 0.000836322 0.00094263 0.000473874 0.000522479 0.00094263 0.0010391 0 0 0.000522479 0.000560389 0 0 0.000560389 0.000583933 0.000522479 0.000560389 0.0010391 0.00111403 0.000560389 0.000583933 0.00111403 0.00116219 0.000334895 0.000177574 0.000313064 0.00016225 0.000177574 0 0.00016225 0 0.000313064 0.00016225 0.000300923 0.000154646 0.00016225 0 0.000154646 0 0.000836322 0.00094263 0.00123948 0.00139834 0.00094263 0.0010391 0.00139834 0.00154096 0.00123948 0.00139834 0.00162175 0.00183089 0.00139834 0.00154096 0.00183089 0.0020189 0.000225751 0.000325738 0.000238343 0.000348571 0.000325738 0.000425726 0.000348571 0.000448754 0.000238343 0.000348571 0.000250934 0.000366089 0.000348571 0.000448754 0.000366089 0.000469899 0.000250934 0.000366089 0.00025992 0.000379378 0.000366089 0.000469899 0.000379378 0.00048649 0.00025992 0.000379378 0.000268906 0.000384318 0.000379378 0.00048649 0.000384318 0.000499731 0.000732095 0.000804694 0.00070844 0.000750686 0.000804694 0.000897572 0.000750686 0.000804303 0.00070844 0.000750686 0.000675981 0.00068272 0.000750686 0.000804303 0.00068272 0.000690121 0.0012175 0.00137497 0.000626473 0.000707496 0.000626473 0.000707496 0 0 0 0 0.000257183 0.000132345 0 0 0.000132345 0 0.000257183 0.000132345 0.000511693 0.000263016 0.000132345 0 0.000263016 0 0.000499731 0.000588401 0.000500327 0.000592668 0.000588401 0.00065862 0.000592668 0.000662427 0.000500327 0.000592668 0.000500923 0.000588101 0.000592668 0.000662427 0.000588101 0.000657359 0.00065862 0.00070378 0.000662427 0.000706915 0.00070378 0.000725753 0.000706915 0.000726454 0.000662427 0.000706915 0.000657359 0.000700033 0.000706915 0.000726454 0.000700033 0.00071903 0.000500923 0.000588101 0.000484063 0.000573258 0.000588101 0.000657359 0.000573258 0.000639596 0.000484063 0.000573258 0.000467202 0.000547843 0.000573258 0.000639596 0.000547843 0.000611507 0.000560512 0.000461918 0.000548881 0.000442603 0.000461918 0.000334895 0.000442603 0.000313064 0.000548881 0.000442603 0.000540335 0.000430419 0.000442603 0.000313064 0.000430419 0.000300923 0.000212673 0.000303529 0.000183108 0.000267468 0.000303529 0.000394386 0.000267468 0.000342343 0.000183108 0.000267468 0.000153544 0.000219491 0.000267468 0.000342343 0.000219491 0.000285437 0.000540335 0.000430419 0.000531203 0.000421128 0.000430419 0.000300923 0.000421128 0.000292399 0.000531203 0.000421128 0.000524307 0.000405527 0.000421128 0.000292399 0.000405527 0.000286747 0.000300923 0.000154646 0.000292399 0.000149773 0.000154646 0 0.000149773 0 0.000292399 0.000149773 0.000286747 0.000143373 0.000149773 0 0.000143373 0 0.000725753 0.000718248 0.000726454 0.000717601 0.000718248 0.000685992 0.000717601 0.000682019 0.000726454 0.000717601 0.00071903 0.000707956 0.000717601 0.000682019 0.000707956 0.000673955 0.000685992 0.000625163 0.000682019 0.000618312 0.000625163 0.000540335 0.000618312 0.000531203 0.000682019 0.000618312 0.000673955 0.000599131 0.000618312 0.000531203 0.000599131 0.000524307 0.000467202 0.000547843 0.000430794 0.000511218 0.000547843 0.000611507 0.000511218 0.00056911 0.000430794 0.000511218 0.000394386 0.000463365 0.000511218 0.00056911 0.000463365 0.000519128 0.000394386 0.000463365 0.000342343 0.000404336 0.000463365 0.000519128 0.000404336 0.000448072 0.000342343 0.000404336 0.000285437 0.000335881 0.000404336 0.000448072 0.000335881 0.000377016 0.000285437 0.000335881 0.000217888 0.00025921 0.000335881 0.000377016 0.00025921 0.000287888 0.000217888 0.00025921 0.000150339 0.000174549 0.00025921 0.000287888 0.000174549 0.00019876 0.000402908 0.000310555 0.00034707 0.000273464 0.000310555 0.000218201 0.000273464 0.000187594 0.00034707 0.000273464 0.000291231 0.000224109 0.000273464 0.000187594 0.000224109 0.000156987 0.000380802 0.000336017 0.000290571 0.000262345 0.000336017 0.000291231 0.000262345 0.000221921 0.000290571 0.000262345 0.00020034 0.000176475 0.000262345 0.000221921 0.000176475 0.00015261 0.00338421 0.00338464 0.00354233 0.00353904 0.00354233 0.00353904 0.00366815 0.00366942 0.00363555 0.00366815 0.0037272 0.00376393 0.00366815 0.00366942 0.00376393 0.00376448 0.00230393 0.00248217 0.00232805 0.00251785 0.00248217 0.00266041 0.00251785 0.00269325 0.00232805 0.00251785 0.00235216 0.00252585 0.00251785 0.00269325 0.00252585 0.00271201 0.00200319 0.00217768 0.00198909 0.0021622 0.00217768 0.00235216 0.0021622 0.00233279 0.00198909 0.0021622 0.00195978 0.00212977 0.0021622 0.00233279 0.00212977 0.00229977 0.00336988 0.00350719 0.00338537 0.00352595 0.00350719 0.00362687 0.00352595 0.00364174 0.00366366 0.0037272 0.00371963 0.00378736 0.00362687 0.00371963 0.00364174 0.0037393 0.00371963 0.00378736 0.0037393 0.00380719 0.00182927 0.00198415 0.00172073 0.00186664 0.00198415 0.00213903 0.00186664 0.0020081 0.00172073 0.00186664 0.0016122 0.00174094 0.00186664 0.0020081 0.00174094 0.00187718 0.00235216 0.00252585 0.00233279 0.00251674 0.00233279 0.00251674 0.00229977 0.00246774 0.00251674 0.00269559 0.00246774 0.00264564 0.00119698 0.00130196 0.00132781 0.00144333 0.00130196 0.00140693 0.00144333 0.00155765 0.00132781 0.00144333 0.00145457 0.00158071 0.00144333 0.00155765 0.00158071 0.00170837 0.00145457 0.00158071 0.00156699 0.0017042 0.00158071 0.00170837 0.0017042 0.00184276 0.00156699 0.0017042 0.00167443 0.0018208 0.0017042 0.00184276 0.0018208 0.00196929 0.00273819 0.00268948 0.00296684 0.00290413 0.00170837 0.00183992 0.00184276 0.00198546 0.00183992 0.00197146 0.00198546 0.00212189 0.00184276 0.00198546 0.00196929 0.00212081 0.00198546 0.00212189 0.00212081 0.00227232 0.00229977 0.00246774 0.0022194 0.00240014 0.00246774 0.00264564 0.00240014 0.00257031 0.0022194 0.00240014 0.00213903 0.00230166 0.00240014 0.00257031 0.00230166 0.00246428 0.00268948 0.00260115 0.00290413 0.0028135 0.00260115 0.0024886 0.0028135 0.00268896 0.0024886 0.00233019 0.00268896 0.00253259 0.00233019 0.00217177 0.00253259 0.00234405 0.00172388 0.00173078 0.00199167 0.00200593 0.00173078 0.00173768 0.00200593 0.00200989 0.00199167 0.00200593 0.00225945 0.00227302 0.00200593 0.00200989 0.00227302 0.00227749 0.00173768 0.00171091 0.00200989 0.00198272 0.00171091 0.00168413 0.00198272 0.00194909 0.00200989 0.00198272 0.00227749 0.00224797 0.00198272 0.00194909 0.00224797 0.00220925 0.00217177 0.00195664 0.00234405 0.00212734 0.00195664 0.00174152 0.00212734 0.00187702 0.00212734 0.00187702 0.00227357 0.00201252 0.00113452 0.00109197 0.00140933 0.0013612 0.00109197 0.00104942 0.0013612 0.00130475 0.00140933 0.0013612 0.00168413 0.00162519 0.0013612 0.00130475 0.00162519 0.00155752 0.00104942 0.000981927 0.00130475 0.00122334 0.000981927 0.000914433 0.00122334 0.00113675 0.00130475 0.00122334 0.00155752 0.00146062 0.00122334 0.00113675 0.00146062 0.00135694 0.00304542 0.00321627 0.00306813 0.00323033 0.00321627 0.00336988 0.00323033 0.00338537 0.00168413 0.00162519 0.00194909 0.00188118 0.00162519 0.00155752 0.00188118 0.00180337 0.00194909 0.00188118 0.00220925 0.00213109 0.00188118 0.00180337 0.00213109 0.0020442 0.00323033 0.00338537 0.00321326 0.00336531 0.00304668 0.00321326 0.00299306 0.00315665 0.00321326 0.00336531 0.00315665 0.00330827 0.00155752 0.00146062 0.00180337 0.00168999 0.00146062 0.00135694 0.00168999 0.00157079 0.00180337 0.00168999 0.0020442 0.00191307 0.00168999 0.00157079 0.00191307 0.00178195 0.00299306 0.00315665 0.00290701 0.00306528 0.00315665 0.00330827 0.00306528 0.00321354 0.00290701 0.00306528 0.00278396 0.00293665 0.000914433 0.000823414 0.00113675 0.00102692 0.000823414 0.000732395 0.00102692 0.000910091 0.00113675 0.00102692 0.00135694 0.00122594 0.00102692 0.000910091 0.00122594 0.00108779 0.00278396 0.00293665 0.00262691 0.00277079 0.00262691 0.00277079 0.00243573 0.00256896 0.00135694 0.00122594 0.00157079 0.00141828 0.00122594 0.00108779 0.00141828 0.00125911 0.00157079 0.00141828 0.00178195 0.00160549 0.00141828 0.00125911 0.00160549 0.00142904 0.00243573 0.00256896 0.00221215 0.00233358 0.00221215 0.00233358 0.00196174 0.00206449 0.00108779 0.000924047 0.00125911 0.001072 0.000924047 0.000760308 0.001072 0.000879338 0.00125911 0.001072 0.00142904 0.0012137 0.001072 0.000879338 0.0012137 0.000998368 0.00196174 0.00206449 0.00167418 0.00176857 0.00206449 0.00216541 0.00176857 0.00185389 0.00167418 0.00176857 0.00137497 0.00144647 0.00176857 0.00185389 0.00144647 0.00151787 0.0016122 0.00174094 0.00145964 0.00157938 0.00174094 0.00187718 0.00157938 0.00170029 0.00145964 0.00157938 0.00130709 0.00140775 0.00157938 0.00170029 0.00140775 0.00151352 0.0037272 0.00376393 0.00378736 0.00381909 0.00376393 0.00376448 0.00381909 0.00382593 0.00378736 0.00381909 0.00380719 0.00384369 0.00381909 0.00382593 0.00384369 0.00384578 0.00379049 0.00371292 0.00380731 0.00373321 0.00130709 0.00140775 0.00111525 0.00120403 0.00140775 0.00151352 0.00120403 0.00129307 0.00111525 0.00120403 0.000923419 0.000992799 0.00120403 0.00129307 0.000992799 0.00106218 0.00151352 0.00162556 0.00129307 0.00138885 0.00162556 0.00173708 0.00138885 0.00148386 0.00129307 0.00138885 0.00106218 0.00113984 0.00138885 0.00148386 0.00113984 0.0012175 0.00346145 0.00325932 0.0034443 0.00323712 0.00325932 0.00302639 0.00323712 0.00300183 0.00140488 0.00153801 0.00147785 0.00161995 0.00153801 0.00167443 0.00161995 0.0017