<?xml version="1.0" ?> 
<!-- 
# vtk DataFile Version 3.0
#This file was generated by the deal.II library on 23:53:51 at 2021/5/3
-->
<VTKFile type="UnstructuredGrid" version="0.1" byte_order="LittleEndian">
<UnstructuredGrid>
<FieldData>
<DataArray type="Float32" Name="CYCLE" NumberOfTuples="1" format="ascii">90</DataArray>
<DataArray type="Float32" Name="TIME" NumberOfTuples="1" format="ascii">0.18</DataArray>
</FieldData>
<Piece NumberOfPoints="7152" NumberOfCells="1788" >
  <Points>
    <DataArray type="Float32" NumberOfComponents="3" format="ascii">
-1 -1 0
-0.75 -1 0
-1 -0.75 0
-0.75 -0.75 0
-0.75 -1 0
-0.5 -1 0
-0.75 -0.75 0
-0.5 -0.75 0
-1 -0.75 0
-0.75 -0.75 0
-1 -0.5 0
-0.75 -0.5 0
-0.5 -1 0
-0.25 -1 0
-0.5 -0.75 0
-0.25 -0.75 0
0.75 -1 0
1 -1 0
0.75 -0.75 0
1 -0.75 0
0.75 -0.25 0
1 -0.25 0
0.75 0 0
1 0 0
-0.75 -0.75 0
-0.625 -0.75 0
-0.75 -0.625 0
-0.625 -0.625 0
-0.625 -0.75 0
-0.5 -0.75 0
-0.625 -0.625 0
-0.5 -0.625 0
-0.75 -0.625 0
-0.625 -0.625 0
-0.75 -0.5 0
-0.625 -0.5 0
-0.625 -0.625 0
-0.5 -0.625 0
-0.625 -0.5 0
-0.5 -0.5 0
-0.75 -0.25 0
-0.625 -0.25 0
-0.75 -0.125 0
-0.625 -0.125 0
-1 -0.25 0
-0.875 -0.25 0
-1 -0.125 0
-0.875 -0.125 0
-1 -0.125 0
-0.875 -0.125 0
-1 0 0
-0.875 0 0
-0.5 -0.25 0
-0.375 -0.25 0
-0.5 -0.125 0
-0.375 -0.125 0
-0.375 -0.25 0
-0.25 -0.25 0
-0.375 -0.125 0
-0.25 -0.125 0
0 -0.75 0
0.125 -0.75 0
0 -0.625 0
0.125 -0.625 0
0 -0.625 0
0.125 -0.625 0
0 -0.5 0
0.125 -0.5 0
0 -0.5 0
0.125 -0.5 0
0 -0.375 0
0.125 -0.375 0
0 -0.375 0
0.125 -0.375 0
0 -0.25 0
0.125 -0.25 0
-1 0.125 0
-0.875 0.125 0
-1 0.25 0
-0.875 0.25 0
-0.5 -0.5 0
-0.375 -0.5 0
-0.5 -0.375 0
-0.375 -0.375 0
-0.375 -0.5 0
-0.25 -0.5 0
-0.375 -0.375 0
-0.25 -0.375 0
0 -1 0
0.125 -1 0
0 -0.875 0
0.125 -0.875 0
0.125 -1 0
0.25 -1 0
0.125 -0.875 0
0.25 -0.875 0
0 -0.875 0
0.125 -0.875 0
0 -0.75 0
0.125 -0.75 0
0.25 -1 0
0.375 -1 0
0.25 -0.875 0
0.375 -0.875 0
0.375 -1 0
0.5 -1 0
0.375 -0.875 0
0.5 -0.875 0
0.25 -0.875 0
0.375 -0.875 0
0.25 -0.75 0
0.375 -0.75 0
0.375 -0.875 0
0.5 -0.875 0
0.375 -0.75 0
0.5 -0.75 0
0.25 -0.75 0
0.375 -0.75 0
0.25 -0.625 0
0.375 -0.625 0
0.375 -0.75 0
0.5 -0.75 0
0.375 -0.625 0
0.5 -0.625 0
0.25 -0.625 0
0.375 -0.625 0
0.25 -0.5 0
0.375 -0.5 0
0.375 -0.625 0
0.5 -0.625 0
0.375 -0.5 0
0.5 -0.5 0
0.5 -1 0
0.625 -1 0
0.5 -0.875 0
0.625 -0.875 0
0.625 -1 0
0.75 -1 0
0.625 -0.875 0
0.75 -0.875 0
0.5 -0.875 0
0.625 -0.875 0
0.5 -0.75 0
0.625 -0.75 0
0.625 -0.875 0
0.75 -0.875 0
0.625 -0.75 0
0.75 -0.75 0
-0.5 -0.75 0
-0.375 -0.75 0
-0.5 -0.625 0
-0.375 -0.625 0
-0.375 -0.75 0
-0.25 -0.75 0
-0.375 -0.625 0
-0.25 -0.625 0
-0.5 -0.625 0
-0.375 -0.625 0
-0.5 -0.5 0
-0.375 -0.5 0
-0.375 -0.625 0
-0.25 -0.625 0
-0.375 -0.5 0
-0.25 -0.5 0
0.5 -0.75 0
0.625 -0.75 0
0.5 -0.625 0
0.625 -0.625 0
0.625 -0.75 0
0.75 -0.75 0
0.625 -0.625 0
0.75 -0.625 0
0.5 -0.625 0
0.625 -0.625 0
0.5 -0.5 0
0.625 -0.5 0
0.625 -0.625 0
0.75 -0.625 0
0.625 -0.5 0
0.75 -0.5 0
0.75 -0.75 0
0.875 -0.75 0
0.75 -0.625 0
0.875 -0.625 0
0.875 -0.75 0
1 -0.75 0
0.875 -0.625 0
1 -0.625 0
0.75 -0.625 0
0.875 -0.625 0
0.75 -0.5 0
0.875 -0.5 0
0.875 -0.625 0
1 -0.625 0
0.875 -0.5 0
1 -0.5 0
0.25 -0.5 0
0.375 -0.5 0
0.25 -0.375 0
0.375 -0.375 0
0.375 -0.5 0
0.5 -0.5 0
0.375 -0.375 0
0.5 -0.375 0
0.25 -0.375 0
0.375 -0.375 0
0.25 -0.25 0
0.375 -0.25 0
0.375 -0.375 0
0.5 -0.375 0
0.375 -0.25 0
0.5 -0.25 0
-0.125 -0.25 0
0 -0.25 0
-0.125 -0.125 0
0 -0.125 0
-1 0.25 0
-0.875 0.25 0
-1 0.375 0
-0.875 0.375 0
0.25 -0.25 0
0.375 -0.25 0
0.25 -0.125 0
0.375 -0.125 0
0.375 -0.25 0
0.5 -0.25 0
0.375 -0.125 0
0.5 -0.125 0
0.25 -0.125 0
0.375 -0.125 0
0.25 0 0
0.375 0 0
0.375 -0.125 0
0.5 -0.125 0
0.375 0 0
0.5 0 0
0.5 -0.5 0
0.625 -0.5 0
0.5 -0.375 0
0.625 -0.375 0
0.625 -0.5 0
0.75 -0.5 0
0.625 -0.375 0
0.75 -0.375 0
0.5 -0.375 0
0.625 -0.375 0
0.5 -0.25 0
0.625 -0.25 0
0.625 -0.375 0
0.75 -0.375 0
0.625 -0.25 0
0.75 -0.25 0
0.75 -0.5 0
0.875 -0.5 0
0.75 -0.375 0
0.875 -0.375 0
0.875 -0.5 0
1 -0.5 0
0.875 -0.375 0
1 -0.375 0
0.75 -0.375 0
0.875 -0.375 0
0.75 -0.25 0
0.875 -0.25 0
0.875 -0.375 0
1 -0.375 0
0.875 -0.25 0
1 -0.25 0
0.5 -0.25 0
0.625 -0.25 0
0.5 -0.125 0
0.625 -0.125 0
0.625 -0.25 0
0.75 -0.25 0
0.625 -0.125 0
0.75 -0.125 0
0.5 -0.125 0
0.625 -0.125 0
0.5 0 0
0.625 0 0
0.625 -0.125 0
0.75 -0.125 0
0.625 0 0
0.75 0 0
-1 -0.5 0
-0.875 -0.5 0
-1 -0.375 0
-0.875 -0.375 0
-0.875 -0.5 0
-0.75 -0.5 0
-0.875 -0.375 0
-0.75 -0.375 0
-1 -0.375 0
-0.875 -0.375 0
-1 -0.25 0
-0.875 -0.25 0
-0.875 -0.375 0
-0.75 -0.375 0
-0.875 -0.25 0
-0.75 -0.25 0
-0.25 -1 0
-0.125 -1 0
-0.25 -0.875 0
-0.125 -0.875 0
-0.125 -1 0
0 -1 0
-0.125 -0.875 0
0 -0.875 0
-0.25 -0.875 0
-0.125 -0.875 0
-0.25 -0.75 0
-0.125 -0.75 0
-0.125 -0.875 0
0 -0.875 0
-0.125 -0.75 0
0 -0.75 0
-0.25 -0.75 0
-0.125 -0.75 0
-0.25 -0.625 0
-0.125 -0.625 0
-0.25 -0.625 0
-0.125 -0.625 0
-0.25 -0.5 0
-0.125 -0.5 0
-0.75 -0.5 0
-0.625 -0.5 0
-0.75 -0.375 0
-0.625 -0.375 0
-0.625 -0.5 0
-0.5 -0.5 0
-0.625 -0.375 0
-0.5 -0.375 0
-0.75 -0.375 0
-0.625 -0.375 0
-0.75 -0.25 0
-0.625 -0.25 0
-0.25 -0.5 0
-0.125 -0.5 0
-0.25 -0.375 0
-0.125 -0.375 0
-0.25 -0.375 0
-0.125 -0.375 0
-0.25 -0.25 0
-0.125 -0.25 0
-0.125 -0.375 0
0 -0.375 0
-0.125 -0.25 0
0 -0.25 0
-0.5625 0.25 0
-0.5 0.25 0
-0.5625 0.3125 0
-0.5 0.3125 0
-0.625 0.3125 0
-0.5625 0.3125 0
-0.625 0.375 0
-0.5625 0.375 0
-0.5625 0.3125 0
-0.5 0.3125 0
-0.5625 0.375 0
-0.5 0.375 0
-0.75 0.375 0
-0.6875 0.375 0
-0.75 0.4375 0
-0.6875 0.4375 0
-0.6875 0.375 0
-0.625 0.375 0
-0.6875 0.4375 0
-0.625 0.4375 0
-0.75 0.4375 0
-0.6875 0.4375 0
-0.75 0.5 0
-0.6875 0.5 0
-0.6875 0.4375 0
-0.625 0.4375 0
-0.6875 0.5 0
-0.625 0.5 0
-0.625 0.375 0
-0.5625 0.375 0
-0.625 0.4375 0
-0.5625 0.4375 0
-0.8125 0.75 0
-0.75 0.75 0
-0.8125 0.8125 0
-0.75 0.8125 0
-0.8125 0.8125 0
-0.75 0.8125 0
-0.8125 0.875 0
-0.75 0.875 0
-0.1875 0.1875 0
-0.125 0.1875 0
-0.1875 0.25 0
-0.125 0.25 0
-0.125 0.25 0
-0.0625 0.25 0
-0.125 0.3125 0
-0.0625 0.3125 0
-0.0625 0.25 0
0 0.25 0
-0.0625 0.3125 0
0 0.3125 0
-0.0625 0.3125 0
0 0.3125 0
-0.0625 0.375 0
0 0.375 0
-0.8125 0.5 0
-0.75 0.5 0
-0.8125 0.5625 0
-0.75 0.5625 0
-0.875 0.6875 0
-0.8125 0.6875 0
-0.875 0.75 0
-0.8125 0.75 0
-0.75 0.875 0
-0.6875 0.875 0
-0.75 0.9375 0
-0.6875 0.9375 0
-0.6875 0.875 0
-0.625 0.875 0
-0.6875 0.9375 0
-0.625 0.9375 0
-0.75 0.9375 0
-0.6875 0.9375 0
-0.75 1 0
-0.6875 1 0
-0.6875 0.9375 0
-0.625 0.9375 0
-0.6875 1 0
-0.625 1 0
-0.625 0 0
-0.5625 0 0
-0.625 0.0625 0
-0.5625 0.0625 0
-0.5625 0 0
-0.5 0 0
-0.5625 0.0625 0
-0.5 0.0625 0
-0.625 0.0625 0
-0.5625 0.0625 0
-0.625 0.125 0
-0.5625 0.125 0
-0.5 0.25 0
-0.4375 0.25 0
-0.5 0.3125 0
-0.4375 0.3125 0
-0.75 0.1875 0
-0.6875 0.1875 0
-0.75 0.25 0
-0.6875 0.25 0
-0.6875 0.1875 0
-0.625 0.1875 0
-0.6875 0.25 0
-0.625 0.25 0
-0.875 0.25 0
-0.8125 0.25 0
-0.875 0.3125 0
-0.8125 0.3125 0
-0.8125 0.25 0
-0.75 0.25 0
-0.8125 0.3125 0
-0.75 0.3125 0
-0.875 0.3125 0
-0.8125 0.3125 0
-0.875 0.375 0
-0.8125 0.375 0
-0.8125 0.3125 0
-0.75 0.3125 0
-0.8125 0.375 0
-0.75 0.375 0
-0.875 -0.25 0
-0.8125 -0.25 0
-0.875 -0.1875 0
-0.8125 -0.1875 0
-0.8125 -0.25 0
-0.75 -0.25 0
-0.8125 -0.1875 0
-0.75 -0.1875 0
-0.875 -0.1875 0
-0.8125 -0.1875 0
-0.875 -0.125 0
-0.8125 -0.125 0
-0.8125 -0.1875 0
-0.75 -0.1875 0
-0.8125 -0.125 0
-0.75 -0.125 0
-0.75 0.25 0
-0.6875 0.25 0
-0.75 0.3125 0
-0.6875 0.3125 0
-0.6875 0.25 0
-0.625 0.25 0
-0.6875 0.3125 0
-0.625 0.3125 0
-0.75 0.3125 0
-0.6875 0.3125 0
-0.75 0.375 0
-0.6875 0.375 0
-0.6875 0.3125 0
-0.625 0.3125 0
-0.6875 0.375 0
-0.625 0.375 0
-1 0.75 0
-0.9375 0.75 0
-1 0.8125 0
-0.9375 0.8125 0
-1 0.8125 0
-0.9375 0.8125 0
-1 0.875 0
-0.9375 0.875 0
-0.875 0.9375 0
-0.8125 0.9375 0
-0.875 1 0
-0.8125 1 0
-0.8125 0.9375 0
-0.75 0.9375 0
-0.8125 1 0
-0.75 1 0
-0.0625 0.4375 0
0 0.4375 0
-0.0625 0.5 0
0 0.5 0
-0.75 0.5 0
-0.6875 0.5 0
-0.75 0.5625 0
-0.6875 0.5625 0
-0.125 0.0625 0
-0.0625 0.0625 0
-0.125 0.125 0
-0.0625 0.125 0
-0.0625 0.0625 0
0 0.0625 0
-0.0625 0.125 0
0 0.125 0
-0.0625 0.125 0
0 0.125 0
-0.0625 0.1875 0
0 0.1875 0
-0.0625 0.1875 0
0 0.1875 0
-0.0625 0.25 0
0 0.25 0
-0.75 0.8125 0
-0.6875 0.8125 0
-0.75 0.875 0
-0.6875 0.875 0
-0.625 0.875 0
-0.5625 0.875 0
-0.625 0.9375 0
-0.5625 0.9375 0
-0.625 0.9375 0
-0.5625 0.9375 0
-0.625 1 0
-0.5625 1 0
-0.5625 0.9375 0
-0.5 0.9375 0
-0.5625 1 0
-0.5 1 0
-1 0.5 0
-0.9375 0.5 0
-1 0.5625 0
-0.9375 0.5625 0
-1 0.5625 0
-0.9375 0.5625 0
-1 0.625 0
-0.9375 0.625 0
-1 0.625 0
-0.9375 0.625 0
-1 0.6875 0
-0.9375 0.6875 0
-1 0.6875 0
-0.9375 0.6875 0
-1 0.75 0
-0.9375 0.75 0
-0.75 -0.125 0
-0.6875 -0.125 0
-0.75 -0.0625 0
-0.6875 -0.0625 0
-0.6875 -0.125 0
-0.625 -0.125 0
-0.6875 -0.0625 0
-0.625 -0.0625 0
-0.6875 -0.0625 0
-0.625 -0.0625 0
-0.6875 0 0
-0.625 0 0
-0.5625 -0.0625 0
-0.5 -0.0625 0
-0.5625 0 0
-0.5 0 0
0.125 -0.75 0
0.1875 -0.75 0
0.125 -0.6875 0
0.1875 -0.6875 0
0.1875 -0.75 0
0.25 -0.75 0
0.1875 -0.6875 0
0.25 -0.6875 0
0.125 -0.6875 0
0.1875 -0.6875 0
0.125 -0.625 0
0.1875 -0.625 0
0.1875 -0.6875 0
0.25 -0.6875 0
0.1875 -0.625 0
0.25 -0.625 0
0.125 -0.625 0
0.1875 -0.625 0
0.125 -0.5625 0
0.1875 -0.5625 0
0.1875 -0.625 0
0.25 -0.625 0
0.1875 -0.5625 0
0.25 -0.5625 0
0.125 -0.5625 0
0.1875 -0.5625 0
0.125 -0.5 0
0.1875 -0.5 0
0.1875 -0.5625 0
0.25 -0.5625 0
0.1875 -0.5 0
0.25 -0.5 0
-0.5 -0.125 0
-0.4375 -0.125 0
-0.5 -0.0625 0
-0.4375 -0.0625 0
-0.4375 -0.125 0
-0.375 -0.125 0
-0.4375 -0.0625 0
-0.375 -0.0625 0
-0.5 -0.0625 0
-0.4375 -0.0625 0
-0.5 0 0
-0.4375 0 0
-0.4375 -0.0625 0
-0.375 -0.0625 0
-0.4375 0 0
-0.375 0 0
-0.375 -0.125 0
-0.3125 -0.125 0
-0.375 -0.0625 0
-0.3125 -0.0625 0
-0.3125 -0.125 0
-0.25 -0.125 0
-0.3125 -0.0625 0
-0.25 -0.0625 0
-0.375 -0.0625 0
-0.3125 -0.0625 0
-0.375 0 0
-0.3125 0 0
-0.3125 -0.0625 0
-0.25 -0.0625 0
-0.3125 0 0
-0.25 0 0
-0.625 -0.25 0
-0.5625 -0.25 0
-0.625 -0.1875 0
-0.5625 -0.1875 0
-0.5625 -0.25 0
-0.5 -0.25 0
-0.5625 -0.1875 0
-0.5 -0.1875 0
-0.625 -0.1875 0
-0.5625 -0.1875 0
-0.625 -0.125 0
-0.5625 -0.125 0
-0.5625 -0.1875 0
-0.5 -0.1875 0
-0.5625 -0.125 0
-0.5 -0.125 0
-0.875 -0.125 0
[...]
  <PointData Scalars="scalars">
    <DataArray type="Float32" Name="U" format="ascii">
0 0 0 3.9542e-05 0 0 3.9542e-05 0.000110939 0 3.9542e-05 0 7.94944e-05 0 0 0.000110939 0.000235993 0 0 0.000347492 0 0.000353968 0 0 0 3.9542e-05 7.52403e-05 5.95182e-05 0.000102009 7.52403e-05 0.000110939 0.000102009 0.000159454 5.95182e-05 0.000102009 7.94944e-05 0.000133552 0.000102009 0.000159454 0.000133552 0.000200347 0.000183248 0.000278683 0.000325311 0.000485022 0 8.98032e-05 0 0.000158607 0 0.000158607 0 0.000288872 0.000371952 0.000443925 0.000616353 0.000683398 0.000443925 0.000482288 0.000683398 0.000647434 0.000397534 0.000475742 0.000528368 0.000627647 0.000528368 0.000627647 0.000588944 0.000690703 0.000588944 0.000690703 0.000576994 0.000656597 0.000576994 0.000656597 0.000504431 0.000524753 0 0.000494306 0 0.000770472 0.000200347 0.000280826 0.000258604 0.000337332 0.000280826 0.000374277 0.000337332 0.000414665 0 0 0.000213681 0.000255785 0 0 0.000255785 0.00028723 0.000213681 0.000255785 0.000397534 0.000475742 0 0 0.00028723 0.000300526 0 0 0.000300526 0.000289056 0.00028723 0.000300526 0.000533326 0.000556929 0.000300526 0.000289056 0.000556929 0.000535651 0.000533326 0.000556929 0.00070143 0.000731351 0.000556929 0.000535651 0.000731351 0.000702964 0.00070143 0.000731351 0.000766771 0.000796995 0.000731351 0.000702964 0.000796995 0.000765221 0 0 0.000289056 0.000249362 0 0 0.000249362 0.000173746 0.000289056 0.000249362 0.000535651 0.000462912 0.000249362 0.000173746 0.000462912 0.000347492 0.000110939 0.000173466 0.000159454 0.00023146 0.000173466 0.000235993 0.00023146 0.000319738 0.000159454 0.00023146 0.000200347 0.000280826 0.00023146 0.000319738 0.000280826 0.000374277 0.000535651 0.000462912 0.000702964 0.000609007 0.000462912 0.000347492 0.000609007 0.000449158 0.000702964 0.000609007 0.000765221 0.000662064 0.000609007 0.000449158 0.000662064 0.000489193 0.000347492 0.000173746 0.000449158 0.000238654 0.000173746 0 0.000238654 0 0.000449158 0.000238654 0.000489193 0.000260199 0.000238654 0 0.000260199 0 0.000766771 0.000796995 0.000718049 0.000742239 0.000796995 0.000765221 0.000742239 0.000711067 0.000718049 0.000742239 0.000559453 0.000572668 0.000742239 0.000711067 0.000572668 0.000547107 0.000496116 0.000504431 0.000518168 0.000369945 0 0.000770472 0 0.0010712 0.000559453 0.000572668 0.00030843 0.000311843 0.000572668 0.000547107 0.000311843 0.000297157 0.00030843 0.000311843 0 0 0.000311843 0.000297157 0 0 0.000765221 0.000662064 0.000711067 0.000615313 0.000662064 0.000489193 0.000615313 0.000453624 0.000711067 0.000615313 0.000547107 0.00047165 0.000615313 0.000453624 0.00047165 0.000353968 0.000489193 0.000260199 0.000453624 0.000241 0.000260199 0 0.000241 0 0.000453624 0.000241 0.000353968 0.000176984 0.000241 0 0.000176984 0 0.000547107 0.00047165 0.000297157 0.000255454 0.00047165 0.000353968 0.000255454 0.000176984 0.000297157 0.000255454 0 0 0.000255454 0.000176984 0 0 0 3.97472e-05 0 5.48411e-05 3.97472e-05 7.94944e-05 5.48411e-05 0.00011411 0 5.48411e-05 0 8.98032e-05 5.48411e-05 0.00011411 8.98032e-05 0.000183248 0 0 0.000117997 0.000167419 0 0 0.000167419 0.000213681 0.000117997 0.000167419 0.000235993 0.000313222 0.000167419 0.000213681 0.000313222 0.000397534 0.000235993 0.000313222 0.000319738 0.000421044 0.000319738 0.000421044 0.000374277 0.000479168 7.94944e-05 0.000133552 0.00011411 0.000181477 0.000133552 0.000200347 0.000181477 0.000258604 0.00011411 0.000181477 0.000183248 0.000278683 0.000374277 0.000479168 0.000414665 0.000495183 0.000414665 0.000495183 0.000482288 0.000496116 0.000495183 0.000576994 0.000496116 0.000504431 0.00265444 0.00290442 0.00319476 0.00349531 0.00280298 0.00319476 0.00326551 0.00372818 0.00319476 0.00349531 0.00372818 0.00407856 0.00218388 0.00274037 0.00246006 0.00308645 0.00274037 0.00326551 0.00308645 0.00368404 0.00246006 0.00308645 0.00266927 0.00335661 0.00308645 0.00368404 0.00335661 0.00400432 0.00326551 0.00372818 0.00368404 0.00420457 0.00174268 0.00235243 0.00142007 0.0019173 0.00142007 0.0019173 0.00100136 0.0013548 0.0017016 0.00120322 0.00210258 0.00148921 0.00148921 0.000771669 0.00179208 0.000929929 0.000771669 0 0.000929929 0 0.000929929 0 0.00108513 0 0.00198026 0.00266927 0.00206629 0.00278759 0.00128794 0.00195993 0.00114373 0.00174268 0.0013548 0.00170901 0.000702147 0.000884628 0.00170901 0.0020436 0.000884628 0.00106021 0.000702147 0.000884628 0 0 0.000884628 0.00106021 0 0 0.000869556 0.00098852 0.00114569 0.00130275 0.00098852 0.00108057 0.00130275 0.00142358 0.00114569 0.00130275 0.00148774 0.00168824 0.00290442 0.00304127 0.00349531 0.00366572 0.00127114 0.00158812 0.00156628 0.00196006 0.00158812 0.00188447 0.00196006 0.00232848 0.000770472 0.00116707 0.000920836 0.00139692 0.00116707 0.00156628 0.00139692 0.00187787 0.000920836 0.00139692 0.0010712 0.0016213 0.00139692 0.00187787 0.0016213 0.00218388 8.98032e-05 0.000136526 0.000124205 0.000182527 0.000136526 0.000183248 0.000182527 0.00025428 0.000124205 0.000182527 0.000158607 0.000246134 0.000182527 0.00025428 0.000246134 0.000325311 0.00156628 0.00196006 0.00187787 0.00235331 0.00196006 0.00232848 0.00235331 0.00280298 0.00187787 0.00235331 0.00218388 0.00274037 0.00235331 0.00280298 0.00274037 0.00326551 0 0.00056802 0 0.000463106 0 0.000463106 0 0.000326068 0.000341531 0.00051635 0 0 0.00051635 0.000702147 0 0 0.00123478 0 0.00135053 0 0.00266927 0.00335661 0.00278759 0.00350684 0.000769201 0.000412797 0.000959574 0.00050037 0.000412797 0 0.00050037 0 0.00050037 0 0.000621341 0 0.000621341 0 0.000771669 0 0.0019173 0.00241396 0.0013548 0.00170901 0.0020436 0.00234978 0.00106021 0.00121743 0.00106021 0.00121743 0 0 0.00121743 0.00133911 0 0 0 0.000647478 0 0.000677019 0 0.000677019 0 0.000675211 0 0.000675211 0 0.00063957 0 0.00063957 0 0.00056802 0.000325311 0.000405166 0.000439049 0.000547756 0.000405166 0.000485022 0.000547756 0.000649106 0.000547756 0.000649106 0.000731427 0.000869556 0.000743864 0.000814518 0.00098852 0.00108057 0.000475742 0.000502063 0.000551694 0.000595456 0.000502063 0.000533326 0.000595456 0.000617378 0.000551694 0.000595456 0.000627647 0.00066122 0.000595456 0.000617378 0.00066122 0.00070143 0.000627647 0.00066122 0.000659175 0.000709539 0.00066122 0.00070143 0.000709539 0.0007341 0.000659175 0.000709539 0.000690703 0.000724723 0.000709539 0.0007341 0.000724723 0.000766771 0.000616353 0.000649876 0.000814518 0.000861547 0.000649876 0.000683398 0.000861547 0.000875854 0.000814518 0.000861547 0.00108057 0.00114095 0.000861547 0.000875854 0.00114095 0.00114984 0.000683398 0.000665416 0.000875854 0.000854923 0.000665416 0.000647434 0.000854923 0.000793565 0.000875854 0.000854923 0.00114984 0.00110669 0.000854923 0.000793565 0.00110669 0.00100674 0.000278683 0.000334856 0.000381852 0.000428099 0.000334856 0.000371952 0.000428099 0.000494152 0.000381852 0.000428099 0.000485022 0.000565251 0.000428099 0.000494152 0.000565251 0.000616353 0.000158607 0.000246134 0.00022374 0.000328131 0.000246134 0.000325311 0.000328131 0.000439049 0.00022374 0.000328131 0.000288872 0.000439358 0.000328131 0.000439049 0.000439358 0.000587142 0.000690703 0.000724723 0.00067365 0.000720644 0.000724723 0.000766771 0.000720644 0.00074241 0.00067365 0.000720644 0.000656597 0.000682136 0.000720644 0.00074241 0.000682136 0.000718049 0.000656597 0.000682136 0.000590675 0.000624961 0.000682136 0.000718049 0.000624961 0.000638751 0.000590675 0.000624961 0.000524753 0.000537326 0.000624961 0.000638751 0.000537326 0.000559453 0.000524753 0.000537326 0.000426466 0.000431941 0.000537326 0.000559453 0.000431941 0.000433941 0.000426466 0.000431941 0.000305036 0.00030154 0.000431941 0.000433941 0.00030154 0.00030843 0.000322637 0.000305036 0.000185558 0.000160566 0.000185558 0.000160566 0 0 0.000305036 0.00030154 0.000160566 0.000156204 0.00030154 0.00030843 0.000156204 0.000154215 0.000160566 0.000156204 0 0 0.000156204 0.000154215 0 0 0.000494306 0.000749253 0.000632389 0.000947315 0.000632389 0.000947315 0.000770472 0.00116707 0.000947315 0.00127114 0.00116707 0.00156628 0.00135053 0 0.00141729 0 0.000647434 0.000596749 0.000793565 0.000693433 0.000793565 0.000693433 0.00100674 0.000848297 0.000518168 0.000444056 0.000562347 0.000403186 0.000444056 0.000369945 0.000403186 0.000261152 0.000731427 0.000869556 0.000966852 0.00114569 0.000966852 0.00114569 0.00125301 0.00148774 0.000504431 0.000514592 0.000437188 0.000429176 0.000514592 0.000524753 0.000429176 0.000426466 0.000437188 0.000429176 0.000369945 0.000322637 0.000429176 0.000426466 0.000322637 0.000305036 0 0.000144436 0 0.00019042 0.000144436 0.000288872 0.00019042 0.000383251 0 0.00019042 0 0.000247153 0.00019042 0.000383251 0.000247153 0.000494306 0.00133911 0.00141069 0 0 0.000288872 0.000439358 0.000383251 0.000578301 0.000439358 0.000587142 0.000578301 0.00077386 0.000383251 0.000578301 0.000494306 0.000749253 0.000578301 0.00077386 0.000749253 0.00100492 0.000258604 0.000297968 0.00030503 0.000343178 0.000297968 0.000337332 0.000343178 0.000379007 0.00030503 0.000343178 0.000371952 0.000407939 0.000343178 0.000379007 0.000407939 0.000443925 0.000701125 0 0.000365839 0 0.000701055 0.000365839 0 0 0.000365839 0 0 0 0.000337332 0.000375998 0.000379007 0.000412903 0.000375998 0.000414665 0.000412903 0.000448476 0.000379007 0.000412903 0.000443925 0.000463107 0.000412903 0.000448476 0.000463107 0.000482288 0.000255785 0.000271507 0.000365763 0.000395353 0.000271507 0.00028723 0.000395353 0.000410278 0.000365763 0.000395353 0.000475742 0.000502063 0.000395353 0.000410278 0.000502063 0.000533326 0 0.000535599 0 0.000597508 0.000535599 0.0010712 0.000597508 0.00120628 0 0.000597508 0 0.000647478 0.000597508 0.00120628 0.000647478 0.00130437 0 0.000326068 0 0.00016874 0.000326068 0.000657527 0.00016874 0.000341531 0 0.00016874 0 0 0.00016874 0.000341531 0 0 0.000313222 0.000355378 0.000367133 0.000419804 0.000355378 0.000397534 0.000419804 0.000462951 0.000367133 0.000419804 0.000421044 0.000469884 0.000419804 0.000462951 0.000469884 0.000528368 0.000421044 0.000469884 0.000450106 0.000509163 0.000469884 0.000528368 0.000509163 0.000558656 0.000450106 0.000509163 0.000479168 0.000529474 0.000509163 0.000558656 0.000529474 0.000588944 0.000181477 0.00022004 0.00023008 0.000264948 0.00022004 0.000258604 0.000264948 0.00030503 0.00023008 0.000264948 0.000278683 0.000334856 0.000264948 0.00030503 0.000334856 0.000371952 0.000479168 0.000529474 0.000487175 0.000539402 0.000529474 0.000588944 0.000539402 0.000582969 0.000487175 0.000539402 0.000495183 0.000536089 0.000539402 0.000582969 0.000536089 0.000576994 0.000482288 0.000489202 0.000564861 0.000532193 0.000489202 0.000496116 0.000532193 0.000507142 0.000564861 0.000532193 0.000647434 0.000596749 0.000532193 0.000507142 0.000596749 0.000518168 0.00232848 0.00250355 0.00256573 0.00275081 0.00250355 0.00265444 0.00275081 0.0029246 0.00256573 0.00275081 0.00280298 0.00299887 0.00275081 0.0029246 0.00299887 0.00319476 0.00114373 0.0014432 0.00104873 0.00131732 0.0014432 0.00174268 0.00131732 0.00158137 0.00104873 0.00131732 0.000929877 0.00116541 0.00131732 0.00158137 0.00116541 0.00142007 0.000929877 0.00116541 0.000803479 0.00100962 0.00116541 0.00142007 0.00100962 0.00121071 0.000803479 0.00100962 0.000657527 0.000823285 0.00100962 0.00121071 0.000823285 0.00100136 0.00456745 0.0046001 0.00483862 0.00488303 0.0046001 0.00458464 0.00488303 0.00485227 0.00134855 0.00116966 0.00151012 0.00130727 0.00116966 0.000959574 0.00130727 0.00106938 0.00151012 0.00130727 0.0017016 0.00145241 0.00130727 0.00106938 0.00145241 0.00120322 0.00483862 0.00488303 0.00507731 0.00511372 0.00488303 0.00485227 0.00511372 0.00509579 0.00184539 0.00190267 0.00207823 0.00214299 0.00190267 0.00193332 0.00214299 0.00217781 0.00207823 0.00214299 0.00234087 0.00241253 0.00214299 0.00217781 0.00241253 0.00245311 0.00260461 0.00199221 0.00267265 0.00204958 0.00199221 0.00135053 0.00204958 0.00138391 0.00267265 0.00204958 0.00273882 0.00209918 0.00204958 0.00138391 0.00209918 0.00141729 0.00209918 0.00141729 0.00210474 0.00143201 0.00141729 0.000708644 0.00143201 0.000718495 0.000708644 0 0.000718495 0 0.00143201 0.000718495 0.0014168 0.000719006 0.000718495 0 0.000719006 0 0.0023811 0.00181804 0.00249421 0.00191439 0.00181804 0.00123478 0.00191439 0.00129265 0.00249421 0.00191439 0.00260461 0.00199221 0.00191439 0.00129265 0.00199221 0.00135053 0.00372818 0.00390337 0.00396638 0.00417553 0.00390337 0.00407856 0.00417553 0.0043496 0.00396638 0.00417553 0.00420457 0.00442052 0.00417553 0.0043496 0.00442052 0.00460585 0.00274951 0.00209742 0.00270731 0.00206289 0.00270731 0.00206289 0.00261657 0.00199848 0.00368404 0.00394431 0.00384418 0.00413893 0.00394431 0.00420457 0.00413893 0.00440395 0.00384418 0.00413893 0.00400432 0.00429989 0.00413893 0.00440395 0.00429989 0.00457628 0.00420457 0.00442052 0.00440395 0.00463188 0.00179208 0.00136101 0.00193923 0.00149163 0.00136101 0.000929929 0.00149163 0.00100753 0.00193923 0.00149163 0.00209539 0.00160996 0.00149163 0.00100753 0.00160996 0.00108513 0.00130437 0.00163465 0.00134205 0.00168379 0.00163465 0.00198026 0.00168379 0.00202328 0.00134205 0.00168379 0.00136027 0.00170567 0.00168379 0.00202328 0.00170567 0.00206629 0.00164252 0.00151428 0.001858 0.0017001 0.001858 0.0017001 0.00208319 0.00190316 0.0017001 0.00151012 0.00190316 0.0017016 0.00136027 0.00170567 0.00137118 0.00172098 0.00170567 0.00206629 0.00172098 0.00208215 0.00137118 0.00172098 0.00135846 0.00170473 0.00172098 0.00208215 0.00170473 0.00206243 0.00258379 0.00265646 0.00197612 0.00203679 0.00265646 0.00272672 0.00203679 0.00208961 0.00197612 0.00203679 0.00133911 0.0013749 0.00203679 0.00208961 0.0013749 0.00141069 0.00208961 0.00209774 0.00141069 0.00142718 0.00141069 0.00142718 0.000705347 0.000716041 0.00142718 0.00141328 0.000716041 0.000717202 0.000705347 0.000716041 0 0 0.000716041 0.000717202 0 0 0.00274303 0.00270273 0.00209231 0.00205923 0.00270273 0.00261339 0.00205923 0.00199592 0.00194987 0.00193245 0.00219904 0.00218922 0.00217781 0.00219904 0.00245311 0.00246606 0.00219904 0.00218922 0.00246606 0.00245572 0.00234087 0.00241253 0.00260615 0.00268774 0.00241253 0.00245311 0.00268774 0.00273662 0.00260615 0.00268774 0.00290442 0.00297285 0.00268774 0.00273662 0.00297285 0.00304127 0.00449912 0.00479039 0.00452598 0.00482908 0.00452598 0.00482908 0.0045071 0.00479446 0.00246606 0.00245572 0.00275811 0.00274727 0.00164648 0.00125483 0.00135569 0.00103465 0.00125483 0.000854436 0.00103465 0.000701125 0.00218922 0.00214819 0.00245572 0.00240774 0.00214819 0.00208452 0.00240774 0.00233686 0.00164634 0.00135569 0.00125464 0.00103459 0.00125464 0.00103459 0.000854283 0.000701055 0.00208452 0.0019821 0.00233686 0.00222135 0.0019821 0.001858 0.00222135 0.00208319 0.00135846 0.00170473 0.00133621 0.00167647 0.00170473 0.00206243 0.00167647 0.00202973 0.00133621 0.00167647 0.00128794 0.00162394 0.00167647 0.00202973 0.00162394 0.00195993 0.00135569 0.00103465 0.00103459 0.000791564 0.00103465 0.000701125 0.000791564 0.000533482 0.00103459 0.000791564 0.000701055 0.000533447 0.000791564 0.000533482 0.000533447 0.000365839 0.00206243 0.00241873 0.00202973 0.0023785 0.00241873 0.00278356 0.0023785 0.00273684 0.00202973 0.0023785 0.00195993 0.00229319 0.0023785 0.00273684 0.00229319 0.00263675 0.00130275 0.00136316 0.00149549 0.00156006 0.00136316 0.00142358 0.00156006 0.00161916 0.00149549 0.00156006 0.00168824 0.00177881 0.00156006 0.00161916 0.00177881 0.00184539 0.00479039 0.00504552 0.00482908 0.00507578 0.00482908 0.00507578 0.00479446 0.00505382 0.00363329 0.00332567 0.00389031 0.00355746 0.00332567 0.00296773 0.00355746 0.00316979 0.00389031 0.00355746 0.00411298 0.0037729 0.00355746 0.00316979 0.0037729 0.00336094 0.00296773 0.00255042 0.00316979 0.0027312 0.00255042 0.00209539 0.0027312 0.00224543 0.00316979 0.0027312 0.00336094 0.00289167 0.0027312 0.00224543 0.00289167 0.0023811 0.00411298 0.0037729 0.0043263 0.00396077 0.0037729 0.00336094 0.00396077 0.00352532 0.0043263 0.00396077 0.00450166 0.00412173 0.00396077 0.00352532 0.00412173 0.00367896 0.00336094 0.00289167 0.00352532 0.00304461 0.00289167 0.0023811 0.00304461 0.00249421 0.00352532 0.00304461 0.00367896 0.00316009 0.00304461 0.00249421 0.00316009 0.00260461 0.00241396 0.00264898 0.00206148 0.00228308 0.00264898 0.00288577 0.00228308 0.00248746 0.00206148 0.00228308 0.00170901 0.0018763 0.00228308 0.00248746 0.0018763 0.0020436 0.00100492 0.00113279 0.00113176 0.00127305 0.00113279 0.00125301 0.00127305 0.00141222 0.00113176 0.00127305 0.00127114 0.00142963 0.00127305 0.00141222 0.00142963 0.00158812 0.00234978 0.00246592 0.00178361 0.00189031 0.00246592 0.00258379 0.00189031 0.00197612 0.00178361 0.00189031 0.00121743 0.00127827 0.00189031 0.00197612 0.00127827 0.00133911 0.00206629 0.00242694 0.00208215 0.00244082 0.00242694 0.00278759 0.00244082 0.00280147 0.00208215 0.00244082 0.00206243 0.00241873 0.00244082 0.00280147 0.00241873 0.00278356 0.0035365 0.00381894 0.00324583 0.00348644 0.00381894 0.00405613 0.00348644 0.00372196 0.00324583 0.00348644 0.00288577 0.00311104 0.00348644 0.00372196 0.00311104 0.00331291 0.00405613 0.00428264 0.00372196 0.00392044 0.00428264 0.00446891 0.00392044 0.00409082 0.00372196 0.00392044 0.00331291 0.00348752 0.00392044 0.00409082 0.00348752 0.0036516 0.00288577 0.00311104 0.00248746 0.00267629 0.00311104 0.00331291 0.00267629 0.0028509 0.00248746 0.00267629 0.0020436 0.00219669 0.00267629 0.0028509 0.00219669 0.00234978 0.00331291 0.00348752 0.0028509 0.003012 0.00348752 0.0036516 0.003012 0.00313594 0.0028509 0.003012 0.00234978 0.00246592 0.003012 0.00313594 0.00246592 0.00258379 0.00501992 0.00517594 0.00516544 0.0053301 0.00517594 0.00527686 0.0053301 0.00542972 0.00516544 0.0053301 0.0052582 0.00542153 0.0053301 0.00542972 0.00542153 0.00554103 0.00527686 0.00531881 0.00542972 0.00548462 0.00531881 0.00529813 0.00548462 0.005458 0.00542972 0.00548462 0.00554103 0.0055738 0.00548462 0.005458 0.0055738 0.00556755 0.0052582 0.00542153 0.00529389 0.00547015 0.00542153 0.00554103 0.00547015 0.00556743 0.00529389 0.00547015 0.00526891 0.0054391 0.00547015 0.00556743 0.0054391 0.00555657 0.00125301 0.00137037 0.00141222 0.00154814 0.00137037 0.00148774 0.00154814 0.00167466 0.00141222 0.00154814 0.00158812 0.00173629 0.00154814 0.00167466 0.00173629 0.00188447 0.00148774 0.00158799 0.00167466 0.00179709 0.00158799 0.00168824 0.00179709 0.00190381 0.00167466 0.00179709 0.00188447 0.0020236 0.00179709 0.00190381 0.0020236 0.002144 0.00168824 0.00177881 0.00190381 0.00200237 0.00177881 0.00184539 0.00200237 0.00207823 0.00190381 0.00200237 0.002144 0.00225501 0.00200237 0.00207823 0.00225501 0.00234087 0.00349531 0.00358051 0.00378694 0.00389978 0.00358051 0.00366572 0.00389978 0.00397177 0.00378694 0.00389978 0.00407856 0.00420086 0.00389978 0.00397177 0.00420086 0.00427833 0.00366572 0.00368747 0.00397177 0.00400438 0.00397177 0.00400438 0.00427833 0.00431431 0.00400438 0.00398063 0.00431431 0.00428862 0.00188447 0.0020236 0.00210648 0.00225344 0.0020236 0.002144 0.00225344 0.00238794 0.00210648 0.00225344 0.00232848 0.00250355 0.00225344 0.00238794 0.00250355 0.00265444 0.00208319 0.00190316 0.00232395 0.00212973 0.00190316 0.0017016 0.00212973 0.00190209 0.00232395 0.00212973 0.00257693 0.00235799 0.00212973 0.00190209 0.00235799 0.00210258 0.002144 0.00225501 0.00238794 0.00251324 0.00225501 0.00234087 0.00251324 0.00260615 0.00238794 0.00251324 0.00265444 0.00277943 0.00251324 0.00260615 0.00277943 0.00290442 0.0010712 0.00134625 0.00113874 0.00143105 0.00134625 0.0016213 0.00143105 0.00172958 0.00113874 0.00143105 0.00120628 0.0015088 0.00143105 0.00172958 0.0015088 0.00182376 0.0016213 0.00190259 0.00172958 0.00202566 0.00190259 0.00218388 0.00202566 0.00232197 0.00172958 0.00202566 0.00182376 0.00213582 0.00202566 0.00232197 0.00213582 0.00246006 0.00120628 0.0015088 0.00125533 0.00158099 0.0015088 0.00182376 0.00158099 0.00191107 0.00125533 0.00158099 0.00130437 0.00163465 0.0