<?xml version="1.0" ?> 
<!-- 
# vtk DataFile Version 3.0
#This file was generated by the deal.II library on 23:53:54 at 2021/5/3
-->
<VTKFile type="UnstructuredGrid" version="0.1" byte_order="LittleEndian">
<UnstructuredGrid>
<FieldData>
<DataArray type="Float32" Name="CYCLE" NumberOfTuples="1" format="ascii">170</DataArray>
<DataArray type="Float32" Name="TIME" NumberOfTuples="1" format="ascii">0.34</DataArray>
</FieldData>
<Piece NumberOfPoints="5424" NumberOfCells="1356" >
  <Points>
    <DataArray type="Float32" NumberOfComponents="3" format="ascii">
-1 -1 0
-0.75 -1 0
-1 -0.75 0
-0.75 -0.75 0
-0.75 -1 0
-0.5 -1 0
-0.75 -0.75 0
-0.5 -0.75 0
-1 -0.75 0
-0.75 -0.75 0
-1 -0.5 0
-0.75 -0.5 0
-0.75 -0.75 0
-0.5 -0.75 0
-0.75 -0.5 0
-0.5 -0.5 0
-0.5 -1 0
-0.25 -1 0
-0.5 -0.75 0
-0.25 -0.75 0
-0.25 -1 0
0 -1 0
-0.25 -0.75 0
0 -0.75 0
-0.5 -0.75 0
-0.25 -0.75 0
-0.5 -0.5 0
-0.25 -0.5 0
-0.25 -0.75 0
0 -0.75 0
-0.25 -0.5 0
0 -0.5 0
-1 -0.5 0
-0.75 -0.5 0
-1 -0.25 0
-0.75 -0.25 0
-0.75 -0.5 0
-0.5 -0.5 0
-0.75 -0.25 0
-0.5 -0.25 0
-1 -0.25 0
-0.75 -0.25 0
-1 0 0
-0.75 0 0
-0.5 -0.5 0
-0.25 -0.5 0
-0.5 -0.25 0
-0.25 -0.25 0
-0.25 -0.5 0
0 -0.5 0
-0.25 -0.25 0
0 -0.25 0
0 -1 0
0.25 -1 0
0 -0.75 0
0.25 -0.75 0
0.75 -1 0
1 -1 0
0.75 -0.75 0
1 -0.75 0
-0.75 -0.25 0
-0.625 -0.25 0
-0.75 -0.125 0
-0.625 -0.125 0
-0.625 -0.25 0
-0.5 -0.25 0
-0.625 -0.125 0
-0.5 -0.125 0
-0.75 -0.125 0
-0.625 -0.125 0
-0.75 0 0
-0.625 0 0
-0.625 -0.125 0
-0.5 -0.125 0
-0.625 0 0
-0.5 0 0
-0.5 -0.25 0
-0.375 -0.25 0
-0.5 -0.125 0
-0.375 -0.125 0
-0.375 -0.25 0
-0.25 -0.25 0
-0.375 -0.125 0
-0.25 -0.125 0
-0.5 -0.125 0
-0.375 -0.125 0
-0.5 0 0
-0.375 0 0
-0.375 -0.125 0
-0.25 -0.125 0
-0.375 0 0
-0.25 0 0
-1 0 0
-0.875 0 0
-1 0.125 0
-0.875 0.125 0
-0.875 0 0
-0.75 0 0
-0.875 0.125 0
-0.75 0.125 0
-1 0.125 0
-0.875 0.125 0
-1 0.25 0
-0.875 0.25 0
-0.875 0.125 0
-0.75 0.125 0
-0.875 0.25 0
-0.75 0.25 0
0 -0.75 0
0.125 -0.75 0
0 -0.625 0
0.125 -0.625 0
0.125 -0.75 0
0.25 -0.75 0
0.125 -0.625 0
0.25 -0.625 0
0 -0.625 0
0.125 -0.625 0
0 -0.5 0
0.125 -0.5 0
0.125 -0.625 0
0.25 -0.625 0
0.125 -0.5 0
0.25 -0.5 0
0 -0.5 0
0.125 -0.5 0
0 -0.375 0
0.125 -0.375 0
0 -0.375 0
0.125 -0.375 0
0 -0.25 0
0.125 -0.25 0
0 -0.25 0
0.125 -0.25 0
0 -0.125 0
0.125 -0.125 0
0.125 -0.25 0
0.25 -0.25 0
0.125 -0.125 0
0.25 -0.125 0
0 -0.125 0
0.125 -0.125 0
0 0 0
0.125 0 0
0.125 -0.125 0
0.25 -0.125 0
0.125 0 0
0.25 0 0
0.25 -1 0
0.375 -1 0
0.25 -0.875 0
0.375 -0.875 0
0.375 -1 0
0.5 -1 0
0.375 -0.875 0
0.5 -0.875 0
0.25 -0.875 0
0.375 -0.875 0
0.25 -0.75 0
0.375 -0.75 0
0.375 -0.875 0
0.5 -0.875 0
0.375 -0.75 0
0.5 -0.75 0
0.25 -0.75 0
0.375 -0.75 0
0.25 -0.625 0
0.375 -0.625 0
0.5 -1 0
0.625 -1 0
0.5 -0.875 0
0.625 -0.875 0
0.625 -1 0
0.75 -1 0
0.625 -0.875 0
0.75 -0.875 0
0.5 -0.875 0
0.625 -0.875 0
0.5 -0.75 0
0.625 -0.75 0
0.625 -0.875 0
0.75 -0.875 0
0.625 -0.75 0
0.75 -0.75 0
0.75 -0.25 0
0.875 -0.25 0
0.75 -0.125 0
0.875 -0.125 0
0.875 -0.25 0
1 -0.25 0
0.875 -0.125 0
1 -0.125 0
0.75 -0.125 0
0.875 -0.125 0
0.75 0 0
0.875 0 0
0.875 -0.125 0
1 -0.125 0
0.875 0 0
1 0 0
0.5 -0.625 0
0.625 -0.625 0
0.5 -0.5 0
0.625 -0.5 0
0.625 -0.625 0
0.75 -0.625 0
0.625 -0.5 0
0.75 -0.5 0
0.75 -0.75 0
0.875 -0.75 0
0.75 -0.625 0
0.875 -0.625 0
0.875 -0.75 0
1 -0.75 0
0.875 -0.625 0
1 -0.625 0
0.75 -0.625 0
0.875 -0.625 0
0.75 -0.5 0
0.875 -0.5 0
0.875 -0.625 0
1 -0.625 0
0.875 -0.5 0
1 -0.5 0
0.375 -0.5 0
0.5 -0.5 0
0.375 -0.375 0
0.5 -0.375 0
0.25 -0.375 0
0.375 -0.375 0
0.25 -0.25 0
0.375 -0.25 0
0.375 -0.375 0
0.5 -0.375 0
0.375 -0.25 0
0.5 -0.25 0
-0.25 -0.25 0
-0.125 -0.25 0
-0.25 -0.125 0
-0.125 -0.125 0
-0.125 -0.25 0
0 -0.25 0
-0.125 -0.125 0
0 -0.125 0
-0.25 -0.125 0
-0.125 -0.125 0
-0.25 0 0
-0.125 0 0
-0.125 -0.125 0
0 -0.125 0
-0.125 0 0
0 0 0
-0.75 0 0
-0.625 0 0
-0.75 0.125 0
-0.625 0.125 0
-1 0.25 0
-0.875 0.25 0
-1 0.375 0
-0.875 0.375 0
-0.125 0 0
0 0 0
-0.125 0.125 0
0 0.125 0
0.25 -0.25 0
0.375 -0.25 0
0.25 -0.125 0
0.375 -0.125 0
0.375 -0.25 0
0.5 -0.25 0
0.375 -0.125 0
0.5 -0.125 0
0.25 -0.125 0
0.375 -0.125 0
0.25 0 0
0.375 0 0
0.375 -0.125 0
0.5 -0.125 0
0.375 0 0
0.5 0 0
0.5 -0.5 0
0.625 -0.5 0
0.5 -0.375 0
0.625 -0.375 0
0.625 -0.5 0
0.75 -0.5 0
0.625 -0.375 0
0.75 -0.375 0
0.5 -0.375 0
0.625 -0.375 0
0.5 -0.25 0
0.625 -0.25 0
0.625 -0.375 0
0.75 -0.375 0
0.625 -0.25 0
0.75 -0.25 0
0.75 -0.5 0
0.875 -0.5 0
0.75 -0.375 0
0.875 -0.375 0
0.875 -0.5 0
1 -0.5 0
0.875 -0.375 0
1 -0.375 0
0.75 -0.375 0
0.875 -0.375 0
0.75 -0.25 0
0.875 -0.25 0
0.875 -0.375 0
1 -0.375 0
0.875 -0.25 0
1 -0.25 0
0.5 -0.25 0
0.625 -0.25 0
0.5 -0.125 0
0.625 -0.125 0
0.625 -0.25 0
0.75 -0.25 0
0.625 -0.125 0
0.75 -0.125 0
0.5 -0.125 0
0.625 -0.125 0
0.5 0 0
0.625 0 0
0.625 -0.125 0
0.75 -0.125 0
0.625 0 0
0.75 0 0
-1 0.875 0
-0.875 0.875 0
-1 1 0
-0.875 1 0
-0.625 0.25 0
-0.5625 0.25 0
-0.625 0.3125 0
-0.5625 0.3125 0
-0.75 0.375 0
-0.6875 0.375 0
-0.75 0.4375 0
-0.6875 0.4375 0
-0.875 0.8125 0
-0.8125 0.8125 0
-0.875 0.875 0
-0.8125 0.875 0
0.125 -0.5 0
0.1875 -0.5 0
0.125 -0.4375 0
0.1875 -0.4375 0
0.1875 -0.5 0
0.25 -0.5 0
0.1875 -0.4375 0
0.25 -0.4375 0
0.125 -0.4375 0
0.1875 -0.4375 0
0.125 -0.375 0
0.1875 -0.375 0
0.1875 -0.4375 0
0.25 -0.4375 0
0.1875 -0.375 0
0.25 -0.375 0
0.125 -0.375 0
0.1875 -0.375 0
0.125 -0.3125 0
0.1875 -0.3125 0
0.1875 -0.375 0
0.25 -0.375 0
0.1875 -0.3125 0
0.25 -0.3125 0
0.125 -0.3125 0
0.1875 -0.3125 0
0.125 -0.25 0
0.1875 -0.25 0
0.1875 -0.3125 0
0.25 -0.3125 0
0.1875 -0.25 0
0.25 -0.25 0
0.375 -0.75 0
0.4375 -0.75 0
0.375 -0.6875 0
0.4375 -0.6875 0
0.4375 -0.75 0
0.5 -0.75 0
0.4375 -0.6875 0
0.5 -0.6875 0
0.375 -0.6875 0
0.4375 -0.6875 0
0.375 -0.625 0
0.4375 -0.625 0
0.4375 -0.6875 0
0.5 -0.6875 0
0.4375 -0.625 0
0.5 -0.625 0
0.25 -0.625 0
0.3125 -0.625 0
0.25 -0.5625 0
0.3125 -0.5625 0
0.3125 -0.625 0
0.375 -0.625 0
0.3125 -0.5625 0
0.375 -0.5625 0
0.25 -0.5625 0
0.3125 -0.5625 0
0.25 -0.5 0
0.3125 -0.5 0
0.3125 -0.5625 0
0.375 -0.5625 0
0.3125 -0.5 0
0.375 -0.5 0
0.375 -0.625 0
0.4375 -0.625 0
0.375 -0.5625 0
0.4375 -0.5625 0
0.4375 -0.625 0
0.5 -0.625 0
0.4375 -0.5625 0
0.5 -0.5625 0
0.375 -0.5625 0
0.4375 -0.5625 0
0.375 -0.5 0
0.4375 -0.5 0
0.4375 -0.5625 0
0.5 -0.5625 0
0.4375 -0.5 0
0.5 -0.5 0
0.5 -0.75 0
0.5625 -0.75 0
0.5 -0.6875 0
0.5625 -0.6875 0
0.5625 -0.75 0
0.625 -0.75 0
0.5625 -0.6875 0
0.625 -0.6875 0
0.5 -0.6875 0
0.5625 -0.6875 0
0.5 -0.625 0
0.5625 -0.625 0
0.5625 -0.6875 0
0.625 -0.6875 0
0.5625 -0.625 0
0.625 -0.625 0
0.625 -0.75 0
0.6875 -0.75 0
0.625 -0.6875 0
0.6875 -0.6875 0
0.6875 -0.75 0
0.75 -0.75 0
0.6875 -0.6875 0
0.75 -0.6875 0
0.625 -0.6875 0
0.6875 -0.6875 0
0.625 -0.625 0
0.6875 -0.625 0
0.6875 -0.6875 0
0.75 -0.6875 0
0.6875 -0.625 0
0.75 -0.625 0
0.25 -0.5 0
0.3125 -0.5 0
0.25 -0.4375 0
0.3125 -0.4375 0
0.3125 -0.5 0
0.375 -0.5 0
0.3125 -0.4375 0
0.375 -0.4375 0
0.25 -0.4375 0
0.3125 -0.4375 0
0.25 -0.375 0
0.3125 -0.375 0
0.3125 -0.4375 0
0.375 -0.4375 0
0.3125 -0.375 0
0.375 -0.375 0
-0.625 0 0
-0.5625 0 0
-0.625 0.0625 0
-0.5625 0.0625 0
-0.5625 0 0
-0.5 0 0
-0.5625 0.0625 0
-0.5 0.0625 0
-0.625 0.0625 0
-0.5625 0.0625 0
-0.625 0.125 0
-0.5625 0.125 0
-0.5625 0.0625 0
-0.5 0.0625 0
-0.5625 0.125 0
-0.5 0.125 0
-0.75 0.125 0
-0.6875 0.125 0
-0.75 0.1875 0
-0.6875 0.1875 0
-0.6875 0.125 0
-0.625 0.125 0
-0.6875 0.1875 0
-0.625 0.1875 0
-0.75 0.1875 0
-0.6875 0.1875 0
-0.75 0.25 0
-0.6875 0.25 0
-0.6875 0.1875 0
-0.625 0.1875 0
-0.6875 0.25 0
-0.625 0.25 0
-0.625 0.125 0
-0.5625 0.125 0
-0.625 0.1875 0
-0.5625 0.1875 0
-0.5625 0.125 0
-0.5 0.125 0
-0.5625 0.1875 0
-0.5 0.1875 0
-0.625 0.1875 0
-0.5625 0.1875 0
-0.625 0.25 0
-0.5625 0.25 0
-0.5625 0.1875 0
-0.5 0.1875 0
-0.5625 0.25 0
-0.5 0.25 0
-0.875 0.25 0
-0.8125 0.25 0
-0.875 0.3125 0
-0.8125 0.3125 0
-0.8125 0.25 0
-0.75 0.25 0
-0.8125 0.3125 0
-0.75 0.3125 0
-0.875 0.3125 0
-0.8125 0.3125 0
-0.875 0.375 0
-0.8125 0.375 0
-0.8125 0.3125 0
-0.75 0.3125 0
-0.8125 0.375 0
-0.75 0.375 0
-1 0.375 0
-0.9375 0.375 0
-1 0.4375 0
-0.9375 0.4375 0
-0.9375 0.375 0
-0.875 0.375 0
-0.9375 0.4375 0
-0.875 0.4375 0
-1 0.4375 0
-0.9375 0.4375 0
-1 0.5 0
-0.9375 0.5 0
-0.9375 0.4375 0
-0.875 0.4375 0
-0.9375 0.5 0
-0.875 0.5 0
-0.875 0.375 0
-0.8125 0.375 0
-0.875 0.4375 0
-0.8125 0.4375 0
-0.8125 0.375 0
-0.75 0.375 0
-0.8125 0.4375 0
-0.75 0.4375 0
-0.875 0.4375 0
-0.8125 0.4375 0
-0.875 0.5 0
-0.8125 0.5 0
-0.8125 0.4375 0
-0.75 0.4375 0
-0.8125 0.5 0
-0.75 0.5 0
-0.75 0.25 0
-0.6875 0.25 0
-0.75 0.3125 0
-0.6875 0.3125 0
-0.6875 0.25 0
-0.625 0.25 0
-0.6875 0.3125 0
-0.625 0.3125 0
-0.75 0.3125 0
-0.6875 0.3125 0
-0.75 0.375 0
-0.6875 0.375 0
-0.6875 0.3125 0
-0.625 0.3125 0
-0.6875 0.375 0
-0.625 0.375 0
-0.5 0 0
-0.4375 0 0
-0.5 0.0625 0
-0.4375 0.0625 0
-0.4375 0 0
-0.375 0 0
-0.4375 0.0625 0
-0.375 0.0625 0
-0.5 0.0625 0
-0.4375 0.0625 0
-0.5 0.125 0
-0.4375 0.125 0
-0.4375 0.0625 0
-0.375 0.0625 0
-0.4375 0.125 0
-0.375 0.125 0
-0.375 0 0
-0.3125 0 0
-0.375 0.0625 0
-0.3125 0.0625 0
-0.3125 0 0
-0.25 0 0
-0.3125 0.0625 0
-0.25 0.0625 0
-0.375 0.0625 0
-0.3125 0.0625 0
-0.375 0.125 0
-0.3125 0.125 0
-0.3125 0.0625 0
-0.25 0.0625 0
-0.3125 0.125 0
-0.25 0.125 0
-0.5 0.125 0
-0.4375 0.125 0
-0.5 0.1875 0
-0.4375 0.1875 0
-0.4375 0.125 0
-0.375 0.125 0
-0.4375 0.1875 0
-0.375 0.1875 0
-0.5 0.1875 0
-0.4375 0.1875 0
-0.5 0.25 0
-0.4375 0.25 0
-0.4375 0.1875 0
-0.375 0.1875 0
-0.4375 0.25 0
-0.375 0.25 0
-0.25 0 0
-0.1875 0 0
-0.25 0.0625 0
-0.1875 0.0625 0
-0.1875 0 0
-0.125 0 0
-0.1875 0.0625 0
-0.125 0.0625 0
-0.25 0.0625 0
-0.1875 0.0625 0
-0.25 0.125 0
-0.1875 0.125 0
-0.1875 0.0625 0
-0.125 0.0625 0
-0.1875 0.125 0
-0.125 0.125 0
-0.125 0.125 0
-0.0625 0.125 0
-0.125 0.1875 0
-0.0625 0.1875 0
-0.0625 0.125 0
0 0.125 0
-0.0625 0.1875 0
0 0.1875 0
-0.125 0.1875 0
-0.0625 0.1875 0
-0.125 0.25 0
-0.0625 0.25 0
-0.0625 0.1875 0
0 0.1875 0
-0.0625 0.25 0
0 0.25 0
-1 0.5 0
-0.9375 0.5 0
-1 0.5625 0
-0.9375 0.5625 0
-0.9375 0.5 0
-0.875 0.5 0
-0.9375 0.5625 0
-0.875 0.5625 0
-1 0.5625 0
-0.9375 0.5625 0
-1 0.625 0
-0.9375 0.625 0
-0.9375 0.5625 0
-0.875 0.5625 0
[...]
  <PointData Scalars="scalars">
    <DataArray type="Float32" Name="U" format="ascii">
0 0 0 8.81598e-05 0 0 8.81598e-05 0.000205111 0 8.81598e-05 0 0.000166288 8.81598e-05 0.000205111 0.000166288 0.000356138 0 0 0.000205111 0.000401663 0 0 0.000401663 0.000720596 0.000205111 0.000401663 0.000356138 0.000639457 0.000401663 0.000720596 0.000639457 0.00109712 0 0.000166288 0 0.000225769 0.000166288 0.000356138 0.000225769 0.000438568 0 0.000225769 0 0.000329827 0.000356138 0.000639457 0.000438568 0.000628953 0.000639457 0.00109712 0.000628953 0.000872103 0 0 0.000720596 0.0010688 0 0 0.000827585 0 0.000225769 0.000332168 0.000277798 0.000384836 0.000332168 0.000438568 0.000384836 0.000485437 0.000277798 0.000384836 0.000329827 0.000496936 0.000384836 0.000485437 0.000496936 0.000644703 0.000438568 0.00053376 0.000485437 0.000558947 0.00053376 0.000628953 0.000558947 0.000590354 0.000485437 0.000558947 0.000644703 0.000718816 0.000558947 0.000590354 0.000718816 0.000684988 0 0.000164913 0 0.000230429 0.000164913 0.000329827 0.000230429 0.000489085 0 0.000230429 0 0.000346173 0.000230429 0.000489085 0.000346173 0.00081306 0.000720596 0.000894697 0.00090886 0.0011935 0.000894697 0.0010688 0.0011935 0.00141875 0.00090886 0.0011935 0.00109712 0.00132289 0.0011935 0.00141875 0.00132289 0.00156836 0.00109712 0.00132289 0.000984614 0.00127219 0.000984614 0.00127219 0.000872103 0.00100714 0.000872103 0.00100714 0.00054684 0.00056644 0.00100714 0.00116994 0.00056644 0.000644618 0.00054684 0.00056644 0 0 0.00056644 0.000644618 0 0 0 0 0.0005344 0.000624021 0 0 0.000624021 0.000633587 0.0005344 0.000624021 0.0010688 0.00117287 0.000624021 0.000633587 0.00117287 0.0011859 0.0010688 0.00117287 0.00141875 0.00156179 0 0 0.000633587 0.000570083 0 0 0.000570083 0.000413792 0.000633587 0.000570083 0.0011859 0.0010688 0.000570083 0.000413792 0.0010688 0.000827585 0.000887909 0.000481039 0.000486426 0.000263496 0.000481039 0 0.000263496 0 0.000486426 0.000263496 0 0 0.000263496 0 0 0 0.00158147 0.00142855 0.00175631 0.00158222 0.00142855 0.0010858 0.00158222 0.00120483 0.000827585 0.000413792 0.0010858 0.000586337 0.000413792 0 0.000586337 0 0.0010858 0.000586337 0.00120483 0.00065266 0.000586337 0 0.00065266 0 0.00173303 0.00175631 0.00164391 0.00165864 0.00148897 0.00164391 0.00116994 0.00128318 0.00164391 0.00165864 0.00128318 0.00129445 0.000628953 0.000750528 0.000590354 0.00056352 0.000750528 0.000872103 0.00056352 0.00054684 0.000590354 0.00056352 0.000684988 0.000479089 0.00056352 0.00054684 0.000479089 0 0.000329827 0.000496936 0.000489085 0.000793828 0 0.000346173 0 0.000533439 0.000479089 0 0.000699091 0 0.00116994 0.00128318 0.000644618 0.000704373 0.00128318 0.00129445 0.000704373 0.000709626 0.000644618 0.000704373 0 0 0.000704373 0.000709626 0 0 0.00175631 0.00158222 0.00165864 0.00149563 0.00158222 0.00120483 0.00149563 0.00113885 0.00165864 0.00149563 0.00129445 0.00116633 0.00149563 0.00113885 0.00116633 0.000887909 0.00120483 0.00065266 0.00113885 0.000617116 0.00065266 0 0.000617116 0 0.00113885 0.000617116 0.000887909 0.000481039 0.000617116 0 0.000481039 0 0.00129445 0.00116633 0.000709626 0.000639124 0.00116633 0.000887909 0.000639124 0.000486426 0.000709626 0.000639124 0 0 0.000639124 0.000486426 0 0 0 0.000496894 0 0 0.00149173 0.00187811 0.00205845 0.00267979 0.0013826 0.00200857 0.00172751 0.00258912 0.000694596 0.00125361 0.000496894 0.000901232 0.00132289 0.00144562 0.00129754 0.00144138 0.00144562 0.00156836 0.00144138 0.00155299 0.00129754 0.00144138 0.00127219 0.00137156 0.00144138 0.00155299 0.00137156 0.00148897 0.00127219 0.00137156 0.00113966 0.00125727 0.00137156 0.00148897 0.00125727 0.00132945 0.00113966 0.00125727 0.00100714 0.00108854 0.00125727 0.00132945 0.00108854 0.00116994 0.00117287 0.00117939 0.00136733 0.00141059 0.00117939 0.0011859 0.00141059 0.00139704 0.00136733 0.00141059 0.00156179 0.00157984 0.00141059 0.00139704 0.00157984 0.00158147 0.00141875 0.00149027 0.00149356 0.00160724 0.00149027 0.00156179 0.00160724 0.0016697 0.00149356 0.00160724 0.00156836 0.00165368 0.00160724 0.0016697 0.00165368 0.00173303 0.00156179 0.00157984 0.0016697 0.00170204 0.00157984 0.00158147 0.00170204 0.00166889 0.0016697 0.00170204 0.00173303 0.00174467 0.00170204 0.00166889 0.00174467 0.00175631 0.0011859 0.00112735 0.00139704 0.00135311 0.00112735 0.0010688 0.00135311 0.00125866 0.00139704 0.00135311 0.00158147 0.00150501 0.00135311 0.00125866 0.00150501 0.00142855 0.0010688 0.000948193 0.00125866 0.00113404 0.000948193 0.000827585 0.00113404 0.000956691 0.00125866 0.00113404 0.00142855 0.00125717 0.00113404 0.000956691 0.00125717 0.0010858 0.00156836 0.00165368 0.00155299 0.00164775 0.00165368 0.00173303 0.00164775 0.00168847 0.00155299 0.00164775 0.00148897 0.00156644 0.00164775 0.00168847 0.00156644 0.00164391 0.000496936 0.00057082 0.000645382 0.000723082 0.00057082 0.000644703 0.000723082 0.000811022 0.000645382 0.000723082 0.000793828 0.00096098 0.000723082 0.000811022 0.00096098 0.00110049 0.000489085 0.000641457 0.000651072 0.000844935 0.000641457 0.000793828 0.000844935 0.00107991 0.000651072 0.000844935 0.00081306 0.00113424 0.000844935 0.00107991 0.00113424 0.00149173 0.000793828 0.00096098 0.00107991 0.00132619 0.00096098 0.00110049 0.00132619 0.00155666 0.00107991 0.00132619 0.00149173 0.00187811 0.00132619 0.00155666 0.00187811 0.00227524 0.000346173 0.000579617 0.000439806 0.00071825 0.000579617 0.00081306 0.00071825 0.00107497 0.000439806 0.00071825 0.000533439 0.000901588 0.00071825 0.00107497 0.000901588 0.0013826 0 0.00026672 0 0.000298414 0.00026672 0.000533439 0.000298414 0.000649128 0 0.000298414 0 0.000341819 0.000298414 0.000649128 0.000341819 0.000752746 0.000533439 0.000901588 0.000649128 0.00110414 0.000901588 0.0013826 0.00110414 0.00172751 0.000649128 0.00110414 0.000752746 0.001302 0.00110414 0.00172751 0.001302 0.00209315 0.00081306 0.00113424 0.00107497 0.0015197 0.00113424 0.00149173 0.0015197 0.00205845 0.00107497 0.0015197 0.0013826 0.00200857 0.0015197 0.00205845 0.00200857 0.00282124 0.000644703 0.00068176 0.000811022 0.000879475 0.00068176 0.000718816 0.000879475 0.000912457 0.000811022 0.000879475 0.00110049 0.00120866 0.000879475 0.000912457 0.00120866 0.00126778 0.000718816 0.000701902 0.000912457 0.000905894 0.000701902 0.000684988 0.000905894 0.000842888 0.000912457 0.000905894 0.00126778 0.00126903 0.000905894 0.000842888 0.00126903 0.00117444 0.00110049 0.00120866 0.00155666 0.00174211 0.00120866 0.00126778 0.00174211 0.00183681 0.00155666 0.00174211 0.00227524 0.00260442 0.00174211 0.00183681 0.00260442 0.00278821 0.000684988 0.000582038 0.000842888 0.000724753 0.000582038 0.000479089 0.000724753 0.00058909 0.000842888 0.000724753 0.00117444 0.000999298 0.000724753 0.00058909 0.000999298 0.000699091 0.000699091 0.000349545 0.00104169 0.000552892 0.000349545 0 0.000552892 0 0.00104169 0.000552892 0.00164987 0.000873501 0.000552892 0 0.000873501 0 0 0.000341819 0 0.000377042 0.000341819 0.000752746 0.000377042 0.000837223 0 0.000377042 0 0.000397505 0.000377042 0.000837223 0.000397505 0.000887785 0.000752746 0.001302 0.000837223 0.00146683 0.001302 0.00209315 0.00146683 0.00240208 0.000837223 0.00146683 0.000887785 0.00155574 0.00146683 0.00240208 0.00155574 0.00257883 0 0.000397505 0 0.000396329 0.000397505 0.000887785 0.000396329 0.000895861 0 0.000396329 0 0.000367321 0.000396329 0.000895861 0.000367321 0.000833507 0 0.000367321 0 0.000310392 0.000367321 0.000833507 0.000310392 0.000694596 0 0.000310392 0 0.000248447 0.000310392 0.000694596 0.000248447 0.000496894 0.000496894 0.000901232 0.000248447 0.000476443 0.000901232 0.00153728 0.000476443 0.000816803 0.000248447 0.000476443 0 0 0.000476443 0.000816803 0 0 0.00278821 0.00283604 0.00421585 0.00432947 0.00283604 0.002665 0.00432947 0.00410669 0.002665 0.00226783 0.00410669 0.00352732 0.00226783 0.00164987 0.00352732 0.00259997 0.000873501 0 0.00137878 0 0.00257883 0.00406377 0.00263046 0.00417846 0.00263046 0.00417846 0.00247799 0.00396771 0.00247799 0.00396771 0.00211148 0.00341175 0.00211148 0.00341175 0.00153728 0.00251761 0.000816803 0.00133593 0 0 0.00332573 0.00361174 0.00398152 0.00438155 0.00361174 0.00386132 0.00438155 0.00470551 0.00398152 0.00438155 0.00483015 0.00527608 0.00438155 0.00470551 0.00527608 0.00573863 0.00386132 0.00409094 0.00470551 0.00498472 0.00409094 0.00421585 0.00498472 0.00519301 0.00187811 0.00207668 0.00227895 0.00249158 0.00207668 0.00227524 0.00249158 0.00272964 0.00227895 0.00249158 0.00267979 0.00301684 0.00249158 0.00272964 0.00301684 0.00332573 0.00205845 0.00236912 0.00243984 0.00278897 0.00236912 0.00267979 0.00278897 0.00318897 0.00243984 0.00278897 0.00282124 0.00329294 0.00278897 0.00318897 0.00329294 0.00379428 0.00421585 0.00427266 0.00519301 0.00530283 0.00427266 0.00432947 0.00530283 0.00533586 0.00432947 0.00421808 0.00533586 0.00525617 0.00421808 0.00410669 0.00525617 0.00508133 0.00483015 0.00527608 0.00573944 0.0064284 0.00527608 0.00573863 0.0064284 0.00691046 0.00267979 0.00301684 0.00318897 0.00358887 0.00301684 0.00332573 0.00358887 0.00398152 0.00318897 0.00358887 0.00379428 0.00431052 0.00358887 0.00398152 0.00431052 0.00483015 0.00200857 0.0024149 0.00229884 0.00274327 0.0024149 0.00282124 0.00274327 0.00327068 0.00229884 0.00274327 0.00258912 0.00312483 0.00274327 0.00327068 0.00312483 0.00375351 0.00410669 0.00381701 0.00508133 0.0047844 0.00381701 0.00352732 0.0047844 0.00438593 0.00352732 0.00306364 0.00438593 0.00387492 0.00306364 0.00259997 0.00387492 0.00321886 0.00220075 0.00112595 0.00273676 0.00142645 0.00112595 0 0.00142645 0 0.00273676 0.00142645 0.00348097 0.00177912 0.00142645 0 0.00177912 0 0.00177912 0 0.00226554 0 0.00320379 0.00388593 0.00347781 0.00427377 0.00388593 0.00475754 0.00427377 0.00519168 0.00347781 0.00427377 0.00371933 0.00458803 0.00427377 0.00519168 0.00458803 0.00564442 0.00371933 0.00458803 0.00394158 0.00486116 0.00394158 0.00486116 0.00406377 0.00506481 0.00475754 0.00568869 0.00519168 0.0063644 0.00519168 0.0063644 0.00564442 0.00683725 0.00172751 0.00215832 0.00191033 0.00235549 0.00215832 0.00258912 0.00235549 0.00290877 0.00191033 0.00235549 0.00209315 0.00258026 0.00235549 0.00290877 0.00258026 0.00320379 0.00406377 0.00506481 0.00412111 0.00517366 0.00412111 0.00517366 0.00417846 0.00520729 0.00258912 0.00312483 0.00290877 0.00350732 0.00312483 0.00375351 0.00350732 0.00425228 0.00290877 0.00350732 0.00320379 0.00388593 0.00350732 0.00425228 0.00388593 0.00475754 0.00417846 0.00520729 0.00407308 0.00513181 0.00407308 0.00513181 0.00396771 0.00496311 0.00282124 0.00329294 0.00327068 0.00382557 0.00329294 0.00379428 0.00382557 0.00445273 0.00327068 0.00382557 0.00375351 0.00443394 0.00382557 0.00445273 0.00443394 0.0052137 0.00396771 0.00496311 0.00368973 0.00467499 0.00368973 0.00467499 0.00341175 0.00428724 0.00379428 0.00431052 0.00445273 0.00509344 0.00431052 0.00483015 0.00509344 0.00573944 0.00445273 0.00509344 0.0052137 0.00603014 0.00509344 0.00573944 0.00603014 0.0068831 0.0208729 0.0200375 0.0200358 0.0193112 0.0200375 0.0188468 0.0193112 0.0181016 0.0200358 0.0193112 0.0188439 0.0181005 0.0188468 0.017086 0.0181016 0.0165255 0.017086 0.0149045 0.0165255 0.0143424 0.0181016 0.0165255 0.0170226 0.0155287 0.0165255 0.0143424 0.0155287 0.0135259 0.0188439 0.0181005 0.0170827 0.0165237 0.0181005 0.0170226 0.0165237 0.015528 0.0170827 0.0165237 0.0149012 0.0143404 0.0165237 0.015528 0.0143404 0.0135249 0.0170226 0.0155287 0.015528 0.0141907 0.0155287 0.0135259 0.0141907 0.0123865 0.015528 0.0141907 0.0135249 0.0123861 0.0141907 0.0123865 0.0123861 0.0108438 0.0149045 0.0120712 0.0143424 0.0116634 0.0120712 0.00862131 0.0116634 0.00834307 0.0143424 0.0116634 0.0135259 0.0110125 0.0116634 0.00834307 0.0110125 0.00789427 0.0135259 0.0110125 0.0123865 0.0101134 0.0110125 0.00789427 0.0101134 0.00727367 0.0123865 0.0101134 0.0108438 0.00888825 0.0101134 0.00727367 0.00888825 0.00641508 0.00341175 0.00428724 0.00296468 0.00378918 0.00296468 0.00378918 0.00251761 0.0031482 0.0149012 0.0143404 0.0120684 0.0116616 0.0143404 0.0135249 0.0116616 0.0110114 0.0120684 0.0116616 0.00861928 0.00834174 0.0116616 0.0110114 0.00834174 0.00789344 0.00216901 0.0027097 0.00110984 0.00141269 0.0027097 0.00345791 0.00141269 0.00176744 0.00110984 0.00141269 0 0 0.00141269 0.00176744 0 0 0.0135249 0.0123861 0.0110114 0.0101129 0.0123861 0.0108438 0.0101129 0.00888806 0.0110114 0.0101129 0.00789344 0.00727323 0.0101129 0.00888806 0.00727323 0.00641488 0.00176744 0.0022557 0 0 0.00375351 0.00443394 0.00425228 0.00505711 0.00443394 0.0052137 0.00505711 0.00601261 0.00425228 0.00505711 0.00475754 0.00568869 0.00505711 0.00601261 0.00568869 0.00685111 0.0052137 0.00603014 0.00601261 0.00701844 0.00603014 0.0068831 0.00701844 0.00807248 0.00601261 0.00701844 0.00685111 0.00805801 0.00701844 0.00807248 0.00805801 0.00945979 0.00117444 0.00108687 0.00140182 0.00131202 0.00108687 0.000999298 0.00131202 0.00118201 0.00140182 0.00131202 0.00173726 0.00162196 0.00131202 0.00118201 0.00162196 0.0014679 0.000999298 0.000849194 0.00118201 0.00103392 0.000849194 0.000699091 0.00103392 0.000870389 0.00118201 0.00103392 0.0014679 0.00128677 0.00103392 0.000870389 0.00128677 0.00104169 0.00173726 0.00162196 0.00212099 0.00199198 0.00162196 0.0014679 0.00199198 0.00179763 0.00212099 0.00199198 0.002665 0.00246641 0.00199198 0.00179763 0.00246641 0.00226783 0.0014679 0.00128677 0.00179763 0.00158352 0.00128677 0.00104169 0.00158352 0.00134578 0.00179763 0.00158352 0.00226783 0.00195885 0.00158352 0.00134578 0.00195885 0.00164987 0.000887785 0.00122176 0.000891823 0.00120827 0.00122176 0.00155574 0.00120827 0.00160713 0.000891823 0.00120827 0.000895861 0.00119605 0.00120827 0.00160713 0.00119605 0.00159318 0.0108438 0.00888825 0.00888806 0.007324 0.00888825 0.00641508 0.007324 0.00531609 0.00888806 0.007324 0.00641488 0.00531602 0.007324 0.00531609 0.00531602 0.00386918 0.00155574 0.00206729 0.00160713 0.00205388 0.00206729 0.00257883 0.00205388 0.00260465 0.00160713 0.00205388 0.00159318 0.00203621 0.00205388 0.00260465 0.00203621 0.00263046 0.00531609 0.00289041 0.00386918 0.00212947 0.00531602 0.00386918 0.00289035 0.00212945 0.0011656 0 0 0 0.000895861 0.00119605 0.000864684 0.00116863 0.00119605 0.00159318 0.00116863 0.00155505 0.000864684 0.00116863 0.000833507 0.0011122 0.00116863 0.00155505 0.0011122 0.00148657 0.00159318 0.00203621 0.00155505 0.00200016 0.00203621 0.00263046 0.00200016 0.00255422 0.00155505 0.00200016 0.00148657 0.00190628 0.00200016 0.00255422 0.00190628 0.00247799 0.000833507 0.0011122 0.000764051 0.00104096 0.0011122 0.00148657 0.00104096 0.00139229 0.000764051 0.00104096 0.000694596 0.000974104 0.00104096 0.00139229 0.000974104 0.00125361 0.00148657 0.00190628 0.00139229 0.00179171 0.00190628 0.00247799 0.00179171 0.00229473 0.00139229 0.00179171 0.00125361 0.00161686 0.00179171 0.00229473 0.00161686 0.00211148 0.00125361 0.00161686 0.00107742 0.0014271 0.00161686 0.00211148 0.0014271 0.00182438 0.00107742 0.0014271 0.000901232 0.00121926 0.0014271 0.00182438 0.00121926 0.00153728 0.00126778 0.00126841 0.0015523 0.00153376 0.00126841 0.00126903 0.00153376 0.00151347 0.0015523 0.00153376 0.00183681 0.00188906 0.00153376 0.00151347 0.00188906 0.0018676 0.00945979 0.0107178 0.010705 0.0123369 0.0107178 0.0118809 0.0123369 0.0136294 0.010705 0.0123369 0.0118571 0.0136187 0.0123369 0.0136294 0.0136187 0.0151433 0.00126903 0.00122173 0.00151347 0.00147599 0.00122173 0.00117444 0.00147599 0.00140182 0.00151347 0.00147599 0.0018676 0.00182033 0.00147599 0.00140182 0.00182033 0.00173726 0.00183681 0.00188906 0.00231251 0.00229659 0.00188906 0.0018676 0.00229659 0.00227263 0.00231251 0.00229659 0.00278821 0.00281212 0.00229659 0.00227263 0.00281212 0.00283604 0.0018676 0.00182033 0.00227263 0.00222869 0.00182033 0.00173726 0.00222869 0.00212099 0.00227263 0.00222869 0.00283604 0.00275052 0.00222869 0.00212099 0.00275052 0.002665 0.00227524 0.00243983 0.00272964 0.00295898 0.00243983 0.00260442 0.00295898 0.00315031 0.00272964 0.00295898 0.00332573 0.00361174 0.00295898 0.00315031 0.00361174 0.00386132 0.00260442 0.00269632 0.00315031 0.0033156 0.00269632 0.00278821 0.0033156 0.00350203 0.00315031 0.0033156 0.00386132 0.00409094 0.0033156 0.00350203 0.00409094 0.00421585 0.00573863 0.00611923 0.00691046 0.00738993 0.00611923 0.00636641 0.00738993 0.00771549 0.00691046 0.00738993 0.00840617 0.00902206 0.00738993 0.00771549 0.00902206 0.00944249 0.00840617 0.00902206 0.00998522 0.0107775 0.00902206 0.00944249 0.0107775 0.0112943 0.00998522 0.0107775 0.0118809 0.0128173 0.0107775 0.0112943 0.0128173 0.0134363 0.00636641 0.00655018 0.00771549 0.00795444 0.00655018 0.00657341 0.00795444 0.00799968 0.00771549 0.00795444 0.00944249 0.00975285 0.00795444 0.00799968 0.00975285 0.00982463 0.00657341 0.00652098 0.00799968 0.00794851 0.00652098 0.00628639 0.00794851 0.00768127 0.00799968 0.00794851 0.00982463 0.00978174 0.00794851 0.00768127 0.00978174 0.00947658 0.00944249 0.00975285 0.0112943 0.0116857 0.00975285 0.00982463 0.0116857 0.0117897 0.0112943 0.0116857 0.0134363 0.0139141 0.0116857 0.0117897 0.0139141 0.0140304 0.00982463 0.00978174 0.0117897 0.0117581 0.00978174 0.00947658 0.0117581 0.0114135 0.0117897 0.0117581 0.0140304 0.0140015 0.0117581 0.0114135 0.0140015 0.0136257 0.00164987 0.00126169 0.00212492 0.00160022 0.00126169 0.000873501 0.00160022 0.00112614 0.00212492 0.00160022 0.00259997 0.00204594 0.00160022 0.00112614 0.00204594 0.00137878 0.00259997 0.00204594 0.00321886 0.00252847 0.00204594 0.00137878 0.00252847 0.00172432 0.00321886 0.00252847 0.0040788 0.00321434 0.00252847 0.00172432 0.00321434 0.00220075 0.00137878 0.00068939 0.00172432 0.000883099 0.00068939 0 0.000883099 0 0.00172432 0.000883099 0.00220075 0.00112595 0.000883099 0 0.00112595 0 0.00628639 0.00596933 0.00768127 0.00730966 0.00596933 0.00545544 0.00730966 0.00670473 0.00768127 0.00730966 0.00947658 0.00904754 0.00730966 0.00670473 0.00904754 0.00833424 0.00545544 0.00486723 0.00670473 0.00598948 0.00486723 0.0040788 0.00598948 0.00504109 0.00670473 0.00598948 0.00833424 0.00748443 0.00598948 0.00504109 0.00748443 0.00634023 0.00947658 0.00904754 0.0114135 0.0109225 0.00904754 0.00833424 0.0109225 0.0100932 0.0114135 0.0109225 0.0136257 0.0130994 0.0109225 0.0100932 0.0130994 0.0121527 0.00833424 0.00748443 0.0100932 0.00910612 0.00748443 0.00634023 0.00910612 0.00772963 0.0100932 0.00910612 0.0121527 0.0110277 0.00910612 0.00772963 0.0110277 0.00947054 0.0040788 0.00321434 0.00504109 0.00398941 0.00321434 0.00220075 0.00398941 0.00273676 0.00504109 0.00398941 0.00634023 0.00506186 0.00398941 0.00273676 0.00506186 0.00348097 0.00209315 0.00258026 0.00224762 0.00279713 0.00258026 0.00320379 0.00279713 0.00347781 0.00224762 0.00279713 0.00240208 0.00298061 0.00279713 0.00347781 0.00298061 0.00371933 0.00240208 0.00298061 0.00249045 0.00313931 0.00298061 0.00371933 0.00313931 0.00394158 0.00249045 0.00313931 0.00257883 0.0033213 0.00313931 0.00394158 0.0033213 0.00406377 0.00564442 0.00683725 0.0060173 0.00730872 0.00683725 0.00835129 0.00730872 0.00895866 0.0060173 0.00730872 0.00626056 0.00762942 0.00730872 0.00895866 0.00762942 0.00937369 0.00835129 0.0099474 0.00895866 0.0107307 0.0099474 0.0118571 0.0107307 0.0127844 0.00895866 0.0107307 0.00937369 0.0112416 0.0107307 0.0127844 0.0112416 0.0133973 0.00626056 0.00762942 0.00644142 0.00786486 0.00762942 0.00937369 0.00786486 0.0096799 0.00644142 0.00786486 0.00646557 0.00790994 0.00786486 0.0096799 0.00790994 0.00975071 0.019534 0.0191432 0.0206429 0.0202592 0.00937369 0.0112416 0.0096799 0.0116283 0.0112416 0.0133973 0.0116283 0.0138697 0.0096799 0.0116283 0.00975071 0.0117305 0.0116283 0.0138697 0.0117305 0.0139836 0.00646557 0.00790994 0.006415 0.00785981 0.00790994 0.00975071 0.00785981 0.00970792 0.006415 0.00785981 0.00618589 0.0075967 0.00785981 0.00970792 0.0075967 0.00940574 0.0195137 0.0206296 0.0191217 0.0202438 0.0210815 0.0214118 0.0214071 0.0217733 0.0141322 0.0128012 0.0158416 0.