# vtk DataFile Version 3.0
#This file was generated by the deal.II library on 2021/4/23 at 0:45:48
ASCII
DATASET UNSTRUCTURED_GRID

FIELD FieldData 2
CYCLE 1 1 int
208
TIME 1 1 double
0.416
POINTS 3444 double
-1 -1 0
-0.75 -1 0
-1 -0.75 0
-0.75 -0.75 0
-0.75 -1 0
-0.5 -1 0
-0.75 -0.75 0
-0.5 -0.75 0
-1 -0.75 0
-0.75 -0.75 0
-1 -0.5 0
-0.75 -0.5 0
-0.75 -0.75 0
-0.5 -0.75 0
-0.75 -0.5 0
-0.5 -0.5 0
-0.5 -1 0
-0.25 -1 0
-0.5 -0.75 0
-0.25 -0.75 0
-0.25 -1 0
0 -1 0
-0.25 -0.75 0
0 -0.75 0
-0.5 -0.75 0
-0.25 -0.75 0
-0.5 -0.5 0
-0.25 -0.5 0
-1 -0.5 0
-0.75 -0.5 0
-1 -0.25 0
-0.75 -0.25 0
-1 -0.25 0
-0.75 -0.25 0
-1 0 0
-0.75 0 0
-0.25 -0.5 0
0 -0.5 0
-0.25 -0.25 0
0 -0.25 0
-0.75 -0.25 0
-0.625 -0.25 0
-0.75 -0.125 0
-0.625 -0.125 0
-0.625 -0.25 0
-0.5 -0.25 0
-0.625 -0.125 0
-0.5 -0.125 0
-0.75 -0.125 0
-0.625 -0.125 0
-0.75 0 0
-0.625 0 0
-0.625 -0.125 0
-0.5 -0.125 0
-0.625 0 0
-0.5 0 0
-0.375 -0.25 0
-0.25 -0.25 0
-0.375 -0.125 0
-0.25 -0.125 0
-0.375 -0.125 0
-0.25 -0.125 0
-0.375 0 0
-0.25 0 0
0 -0.75 0
0.125 -0.75 0
0 -0.625 0
0.125 -0.625 0
0.125 -0.75 0
0.25 -0.75 0
0.125 -0.625 0
0.25 -0.625 0
0 -0.625 0
0.125 -0.625 0
0 -0.5 0
0.125 -0.5 0
0.125 -0.625 0
0.25 -0.625 0
0.125 -0.5 0
0.25 -0.5 0
0 -0.5 0
0.125 -0.5 0
0 -0.375 0
0.125 -0.375 0
0.125 -0.5 0
0.25 -0.5 0
0.125 -0.375 0
0.25 -0.375 0
0 -0.375 0
0.125 -0.375 0
0 -0.25 0
0.125 -0.25 0
0.125 -0.375 0
0.25 -0.375 0
0.125 -0.25 0
0.25 -0.25 0
-0.25 -0.75 0
-0.125 -0.75 0
-0.25 -0.625 0
-0.125 -0.625 0
-0.125 -0.75 0
0 -0.75 0
-0.125 -0.625 0
0 -0.625 0
-0.25 -0.625 0
-0.125 -0.625 0
-0.25 -0.5 0
-0.125 -0.5 0
-0.125 -0.625 0
0 -0.625 0
-0.125 -0.5 0
0 -0.5 0
0 -1 0
0.125 -1 0
0 -0.875 0
0.125 -0.875 0
0.125 -1 0
0.25 -1 0
0.125 -0.875 0
0.25 -0.875 0
0 -0.875 0
0.125 -0.875 0
0 -0.75 0
0.125 -0.75 0
0.125 -0.875 0
0.25 -0.875 0
0.125 -0.75 0
0.25 -0.75 0
-0.5 0 0
-0.375 0 0
-0.5 0.125 0
-0.375 0.125 0
-0.5 -0.5 0
-0.375 -0.5 0
-0.5 -0.375 0
-0.375 -0.375 0
-0.375 -0.5 0
-0.25 -0.5 0
-0.375 -0.375 0
-0.25 -0.375 0
-0.5 -0.375 0
-0.375 -0.375 0
-0.5 -0.25 0
-0.375 -0.25 0
-0.375 -0.375 0
-0.25 -0.375 0
-0.375 -0.25 0
-0.25 -0.25 0
0.25 -1 0
0.375 -1 0
0.25 -0.875 0
0.375 -0.875 0
0.375 -1 0
0.5 -1 0
0.375 -0.875 0
0.5 -0.875 0
0.25 -0.875 0
0.375 -0.875 0
0.25 -0.75 0
0.375 -0.75 0
0.375 -0.875 0
0.5 -0.875 0
0.375 -0.75 0
0.5 -0.75 0
0.25 -0.75 0
0.375 -0.75 0
0.25 -0.625 0
0.375 -0.625 0
0.5 -1 0
0.625 -1 0
0.5 -0.875 0
0.625 -0.875 0
0.625 -1 0
0.75 -1 0
0.625 -0.875 0
0.75 -0.875 0
0.5 -0.875 0
0.625 -0.875 0
0.5 -0.75 0
0.625 -0.75 0
0.625 -0.875 0
0.75 -0.875 0
0.625 -0.75 0
0.75 -0.75 0
-0.75 -0.5 0
-0.625 -0.5 0
-0.75 -0.375 0
-0.625 -0.375 0
-0.625 -0.5 0
-0.5 -0.5 0
-0.625 -0.375 0
-0.5 -0.375 0
-0.75 -0.375 0
-0.625 -0.375 0
-0.75 -0.25 0
-0.625 -0.25 0
-0.625 -0.375 0
-0.5 -0.375 0
-0.625 -0.25 0
-0.5 -0.25 0
-0.25 -0.25 0
-0.125 -0.25 0
-0.25 -0.125 0
-0.125 -0.125 0
-0.125 -0.25 0
0 -0.25 0
-0.125 -0.125 0
0 -0.125 0
-0.25 -0.125 0
-0.125 -0.125 0
-0.25 0 0
-0.125 0 0
-1 0.25 0
-0.875 0.25 0
-1 0.375 0
-0.875 0.375 0
-0.875 0.25 0
-0.75 0.25 0
-0.875 0.375 0
-0.75 0.375 0
-1 0.375 0
-0.875 0.375 0
-1 0.5 0
-0.875 0.5 0
0.75 -1 0
0.875 -1 0
0.75 -0.875 0
0.875 -0.875 0
0.875 -1 0
1 -1 0
0.875 -0.875 0
1 -0.875 0
0.75 -0.875 0
0.875 -0.875 0
0.75 -0.75 0
0.875 -0.75 0
0.875 -0.875 0
1 -0.875 0
0.875 -0.75 0
1 -0.75 0
-1 0 0
-0.875 0 0
-1 0.125 0
-0.875 0.125 0
-0.875 0 0
-0.75 0 0
-0.875 0.125 0
-0.75 0.125 0
-1 0.125 0
-0.875 0.125 0
-1 0.25 0
-0.875 0.25 0
-0.875 0.125 0
-0.75 0.125 0
-0.875 0.25 0
-0.75 0.25 0
-1 0.5 0
-0.875 0.5 0
-1 0.625 0
-0.875 0.625 0
-1 0.625 0
-0.875 0.625 0
-1 0.75 0
-0.875 0.75 0
-0.875 0.625 0
-0.75 0.625 0
-0.875 0.75 0
-0.75 0.75 0
0.125 -0.25 0
0.25 -0.25 0
0.125 -0.125 0
0.25 -0.125 0
0.125 -0.125 0
0.25 -0.125 0
0.125 0 0
0.25 0 0
-1 0.75 0
-0.875 0.75 0
-1 0.875 0
-0.875 0.875 0
-0.875 0.75 0
-0.75 0.75 0
-0.875 0.875 0
-0.75 0.875 0
-1 0.875 0
-0.875 0.875 0
-1 1 0
-0.875 1 0
-0.875 0.875 0
-0.75 0.875 0
-0.875 1 0
-0.75 1 0
-0.625 0.25 0
-0.5625 0.25 0
-0.625 0.3125 0
-0.5625 0.3125 0
-0.5625 0.25 0
-0.5 0.25 0
-0.5625 0.3125 0
-0.5 0.3125 0
-0.625 0.3125 0
-0.5625 0.3125 0
-0.625 0.375 0
-0.5625 0.375 0
-0.5625 0.3125 0
-0.5 0.3125 0
-0.5625 0.375 0
-0.5 0.375 0
-0.75 0.375 0
-0.6875 0.375 0
-0.75 0.4375 0
-0.6875 0.4375 0
-0.6875 0.375 0
-0.625 0.375 0
-0.6875 0.4375 0
-0.625 0.4375 0
-0.75 0.4375 0
-0.6875 0.4375 0
-0.75 0.5 0
-0.6875 0.5 0
-0.6875 0.4375 0
-0.625 0.4375 0
-0.6875 0.5 0
-0.625 0.5 0
-0.625 0.375 0
-0.5625 0.375 0
-0.625 0.4375 0
-0.5625 0.4375 0
-0.5625 0.375 0
-0.5 0.375 0
-0.5625 0.4375 0
-0.5 0.4375 0
-0.625 0.4375 0
-0.5625 0.4375 0
-0.625 0.5 0
-0.5625 0.5 0
-0.25 0.125 0
-0.1875 0.125 0
-0.25 0.1875 0
-0.1875 0.1875 0
-0.1875 0.125 0
-0.125 0.125 0
-0.1875 0.1875 0
-0.125 0.1875 0
-0.25 0.1875 0
-0.1875 0.1875 0
-0.25 0.25 0
-0.1875 0.25 0
-0.1875 0.1875 0
-0.125 0.1875 0
-0.1875 0.25 0
-0.125 0.25 0
-0.5 -0.125 0
-0.4375 -0.125 0
-0.5 -0.0625 0
-0.4375 -0.0625 0
-0.4375 -0.125 0
-0.375 -0.125 0
-0.4375 -0.0625 0
-0.375 -0.0625 0
-0.5 -0.0625 0
-0.4375 -0.0625 0
-0.5 0 0
-0.4375 0 0
-0.4375 -0.0625 0
-0.375 -0.0625 0
-0.4375 0 0
-0.375 0 0
-0.625 0 0
-0.5625 0 0
-0.625 0.0625 0
-0.5625 0.0625 0
-0.5625 0 0
-0.5 0 0
-0.5625 0.0625 0
-0.5 0.0625 0
-0.625 0.0625 0
-0.5625 0.0625 0
-0.625 0.125 0
-0.5625 0.125 0
-0.5625 0.0625 0
-0.5 0.0625 0
-0.5625 0.125 0
-0.5 0.125 0
-0.625 0.125 0
-0.5625 0.125 0
-0.625 0.1875 0
-0.5625 0.1875 0
-0.5625 0.125 0
-0.5 0.125 0
-0.5625 0.1875 0
-0.5 0.1875 0
-0.625 0.1875 0
-0.5625 0.1875 0
-0.625 0.25 0
-0.5625 0.25 0
-0.5625 0.1875 0
-0.5 0.1875 0
-0.5625 0.25 0
-0.5 0.25 0
-0.5 0.125 0
-0.4375 0.125 0
-0.5 0.1875 0
-0.4375 0.1875 0
-0.4375 0.125 0
-0.375 0.125 0
-0.4375 0.1875 0
-0.375 0.1875 0
-0.5 0.1875 0
-0.4375 0.1875 0
-0.5 0.25 0
-0.4375 0.25 0
-0.4375 0.1875 0
-0.375 0.1875 0
-0.4375 0.25 0
-0.375 0.25 0
-0.125 -0.125 0
-0.0625 -0.125 0
-0.125 -0.0625 0
-0.0625 -0.0625 0
-0.0625 -0.125 0
0 -0.125 0
-0.0625 -0.0625 0
0 -0.0625 0
-0.125 -0.0625 0
-0.0625 -0.0625 0
-0.125 0 0
-0.0625 0 0
-0.875 0.375 0
-0.8125 0.375 0
-0.875 0.4375 0
-0.8125 0.4375 0
-0.8125 0.375 0
-0.75 0.375 0
-0.8125 0.4375 0
-0.75 0.4375 0
-0.875 0.4375 0
-0.8125 0.4375 0
-0.875 0.5 0
-0.8125 0.5 0
-0.8125 0.4375 0
-0.75 0.4375 0
-0.8125 0.5 0
-0.75 0.5 0
-0.5 -0.25 0
-0.4375 -0.25 0
-0.5 -0.1875 0
-0.4375 -0.1875 0
-0.4375 -0.25 0
-0.375 -0.25 0
-0.4375 -0.1875 0
-0.375 -0.1875 0
-0.5 -0.1875 0
-0.4375 -0.1875 0
-0.5 -0.125 0
-0.4375 -0.125 0
-0.4375 -0.1875 0
-0.375 -0.1875 0
-0.4375 -0.125 0
-0.375 -0.125 0
-0.125 0 0
-0.0625 0 0
-0.125 0.0625 0
-0.0625 0.0625 0
-0.125 0.0625 0
-0.0625 0.0625 0
-0.125 0.125 0
-0.0625 0.125 0
-0.0625 0.0625 0
0 0.0625 0
-0.0625 0.125 0
0 0.125 0
-0.75 0.25 0
-0.6875 0.25 0
-0.75 0.3125 0
-0.6875 0.3125 0
-0.6875 0.25 0
-0.625 0.25 0
-0.6875 0.3125 0
-0.625 0.3125 0
-0.75 0.3125 0
-0.6875 0.3125 0
-0.75 0.375 0
-0.6875 0.375 0
-0.6875 0.3125 0
-0.625 0.3125 0
-0.6875 0.375 0
-0.625 0.375 0
0 -0.125 0
0.0625 -0.125 0
0 -0.0625 0
0.0625 -0.0625 0
0.0625 -0.125 0
0.125 -0.125 0
0.0625 -0.0625 0
0.125 -0.0625 0
0.0625 -0.0625 0
0.125 -0.0625 0
0.0625 0 0
0.125 0 0
-0.125 0.125 0
-0.0625 0.125 0
-0.125 0.1875 0
-0.0625 0.1875 0
-0.0625 0.125 0
0 0.125 0
-0.0625 0.1875 0
0 0.1875 0
-0.125 0.1875 0
-0.0625 0.1875 0
-0.125 0.25 0
-0.0625 0.25 0
-0.0625 0.1875 0
0 0.1875 0
-0.0625 0.25 0
0 0.25 0
-0.875 0.5 0
-0.8125 0.5 0
-0.875 0.5625 0
-0.8125 0.5625 0
-0.8125 0.5 0
-0.75 0.5 0
-0.8125 0.5625 0
-0.75 0.5625 0
-0.875 0.5625 0
-0.8125 0.5625 0
-0.875 0.625 0
-0.8125 0.625 0
-0.8125 0.5625 0
-0.75 0.5625 0
-0.8125 0.625 0
-0.75 0.625 0
-0.75 0 0
-0.6875 0 0
-0.75 0.0625 0
-0.6875 0.0625 0
-0.6875 0 0
-0.625 0 0
-0.6875 0.0625 0
-0.625 0.0625 0
-0.75 0.0625 0
-0.6875 0.0625 0
-0.75 0.125 0
-0.6875 0.125 0
-0.6875 0.0625 0
-0.625 0.0625 0
-0.6875 0.125 0
-0.625 0.125 0
-0.75 0.125 0
-0.6875 0.125 0
-0.75 0.1875 0
-0.6875 0.1875 0
-0.6875 0.125 0
-0.625 0.125 0
-0.6875 0.1875 0
-0.625 0.1875 0
-0.75 0.1875 0
-0.6875 0.1875 0
-0.75 0.25 0
-0.6875 0.25 0
-0.6875 0.1875 0
-0.625 0.1875 0
-0.6875 0.25 0
-0.625 0.25 0
-0.375 0 0
-0.3125 0 0
-0.375 0.0625 0
-0.3125 0.0625 0
-0.3125 0 0
-0.25 0 0
-0.3125 0.0625 0
-0.25 0.0625 0
-0.375 0.0625 0
-0.3125 0.0625 0
-0.375 0.125 0
-0.3125 0.125 0
-0.3125 0.0625 0
-0.25 0.0625 0
-0.3125 0.125 0
-0.25 0.125 0
0 -0.25 0
0.0625 -0.25 0
0 -0.1875 0
0.0625 -0.1875 0
0.0625 -0.25 0
0.125 -0.25 0
0.0625 -0.1875 0
0.125 -0.1875 0
0 -0.1875 0
0.0625 -0.1875 0
0 -0.125 0
0.0625 -0.125 0
0.0625 -0.1875 0
0.125 -0.1875 0
0.0625 -0.125 0
0.125 -0.125 0
0.5 -0.625 0
0.5625 -0.625 0
0.5 -0.5625 0
0.5625 -0.5625 0
0.5 -0.5625 0
0.5625 -0.5625 0
0.5 -0.5 0
0.5625 -0.5 0
0.875 -0.75 0
0.9375 -0.75 0
0.875 -0.6875 0
0.9375 -0.6875 0
0.9375 -0.75 0
1 -0.75 0
0.9375 -0.6875 0
1 -0.6875 0
0.875 -0.6875 0
0.9375 -0.6875 0
0.875 -0.625 0
0.9375 -0.625 0
0.9375 -0.6875 0
1 -0.6875 0
0.9375 -0.625 0
1 -0.625 0
-0.25 0 0
-0.1875 0 0
-0.25 0.0625 0
-0.1875 0.0625 0
-0.1875 0 0
-0.125 0 0
-0.1875 0.0625 0
-0.125 0.0625 0
-0.25 0.0625 0
-0.1875 0.0625 0
-0.25 0.125 0
-0.1875 0.125 0
-0.1875 0.0625 0
-0.125 0.0625 0
-0.1875 0.125 0
-0.125 0.125 0
0.9375 -0.625 0
1 -0.625 0
0.9375 -0.5625 0
1 -0.5625 0
0.9375 -0.5625 0
1 -0.5625 0
0.9375 -0.5 0
1 -0.5 0
-0.375 0.125 0
-0.3125 0.125 0
-0.375 0.1875 0
-0.3125 0.1875 0
-0.3125 0.125 0
-0.25 0.125 0
-0.3125 0.1875 0
-0.25 0.1875 0
-0.375 0.1875 0
-0.3125 0.1875 0
-0.375 0.25 0
-0.3125 0.25 0
-0.3125 0.1875 0
-0.25 0.1875 0
-0.3125 0.25 0
-0.25 0.25 0
0.375 -0.5 0
0.4375 -0.5 0
0.375 -0.4375 0
0.4375 -0.4375 0
0.4375 -0.5 0
0.5 -0.5 0
0.4375 -0.4375 0
0.5 -0.4375 0
0.25 -0.625 0
0.3125 -0.625 0
0.25 -0.5625 0
0.3125 -0.5625 0
0.3125 -0.625 0
0.375 -0.625 0
0.3125 -0.5625 0
0.375 -0.5625 0
0.25 -0.5625 0
0.3125 -0.5625 0
0.25 -0.5 0
0.3125 -0.5 0
0.375 -0.625 0
0.4375 -0.625 0
0.375 -0.5625 0
0.4375 -0.5625 0
0.4375 -0.625 0
0.5 -0.625 0
0.4375 -0.5625 0
0.5 -0.5625 0
0.375 -0.5625 0
[...]
POINT_DATA 3444
SCALARS U double 1
LOOKUP_TABLE default
0 0 0 9.33648e-05 0 0 9.33648e-05 0.000186019 0 9.33648e-05 0 0.000206293 9.33648e-05 0.000186019 0.000206293 0.000385465 0 0 0.000186019 0.000278653 0 0 0.000278653 0.000354397 0.000186019 0.000278653 0.000385465 0.00049899 0 0.000206293 0 0.000406326 0 0.000406326 0 0.000820217 0.00049899 0.000563413 0.000701549 0.000543943 0.000406326 0.000580651 0.000613272 0.00081151 0.000580651 0.000688654 0.00081151 0.000936884 0.000613272 0.00081151 0.000820217 0.00113004 0.00081151 0.000936884 0.00113004 0.0012885 0.000732394 0.000701549 0.000953237 0.000849826 0.000953237 0.000849826 0.00127428 0.00106634 0.000354397 0.000381768 0.000480305 0.000521944 0.000381768 0.00041996 0.000521944 0.000619485 0.000480305 0.000521944 0.000563413 0.000597781 0.000521944 0.000619485 0.000597781 0.000834751 0.000563413 0.000597781 0.000553678 0.000602847 0.000597781 0.000834751 0.000602847 0.000953282 0.000553678 0.000602847 0.000543943 0.000512832 0.000602847 0.000953282 0.000512832 0.000877607 0.000278653 0.000316525 0.000388821 0.000441416 0.000316525 0.000354397 0.000441416 0.000480305 0.000388821 0.000441416 0.00049899 0.000531201 0.000441416 0.000480305 0.000531201 0.000563413 0 0 0.000177198 0.000202027 0 0 0.000202027 0.000213689 0.000177198 0.000202027 0.000354397 0.000381768 0.000202027 0.000213689 0.000381768 0.00041996 0.0012885 0.00127428 0.00171281 0.00166778 0.000385465 0.000442227 0.000509123 0.000570897 0.000442227 0.00049899 0.000570897 0.000600269 0.000509123 0.000570897 0.000688654 0.000732394 0.000570897 0.000600269 0.000732394 0.000701549 0 0 0.000213689 0.000220392 0 0 0.000220392 0.000218415 0.000213689 0.000220392 0.00041996 0.000484747 0.000220392 0.000218415 0.000484747 0.000611757 0.00041996 0.000484747 0.000619485 0.000960499 0 0 0.000218415 0.000201544 0 0 0.000201544 0.000158957 0.000218415 0.000201544 0.000611757 0.00070069 0.000201544 0.000158957 0.00070069 0.000653774 0.000206293 0.000295879 0.00030631 0.00041572 0.000295879 0.000385465 0.00041572 0.000509123 0.00030631 0.00041572 0.000406326 0.000580651 0.00041572 0.000509123 0.000580651 0.000688654 0.000701549 0.000622746 0.000849826 0.000638393 0.000622746 0.000543943 0.000638393 0.000413924 0.000849826 0.000638393 0.00106634 0.000663172 0 0.000736671 0 0.00086589 0.000736671 0.00140001 0.00086589 0.00164098 0 0.00086589 0 0.000919406 0 0 0.000158957 8.83377e-05 0 0 8.83377e-05 0 0.000158957 8.83377e-05 0.000653774 0.00041016 8.83377e-05 0 0.00041016 0 0 0.000410108 0 0.000578485 0.000410108 0.000820217 0.000578485 0.00109887 0 0.000578485 0 0.000736671 0.000578485 0.00109887 0.000736671 0.00140001 0 0.000919406 0 0.000863839 0 0.000863839 0 0.00067429 0.000863839 0.00163826 0.00067429 0.0012862 0.000512832 0.000877607 0.000319602 0.000543486 0.000319602 0.000543486 0 0 0 0.00067429 0 0.000371517 0.00067429 0.0012862 0.000371517 0.000708557 0 0.000371517 0 0 0.000371517 0.000708557 0 0 0.00190112 0.00206526 0.00208021 0.00226041 0.00206526 0.00215667 0.00226041 0.00236039 0.00208021 0.00226041 0.00222787 0.00242056 0.00226041 0.00236039 0.00242056 0.00252714 0.00164098 0.00196108 0.00170839 0.0020507 0.00196108 0.00222787 0.0020507 0.00232851 0.00170839 0.0020507 0.00173845 0.00208525 0.0020507 0.00232851 0.00208525 0.00236867 0.00222787 0.00242056 0.00232851 0.00253079 0.00242056 0.00252714 0.00253079 0.00264255 0.00232851 0.00253079 0.00236867 0.00257482 0.00134149 0.00107961 0.00150328 0.00120345 0.00107961 0.000760467 0.00120345 0.00084137 0.00150328 0.00120345 0.00166652 0.00133035 0.00120345 0.00084137 0.00133035 0.000927616 0.000936884 0.000968941 0.00111269 0.00112186 0.000968941 0.000953237 0.00112186 0.00111376 0.00111269 0.00112186 0.0012885 0.00128139 0.00112186 0.00111376 0.00128139 0.00127428 0.00113004 0.00120927 0.00130269 0.00142264 0.00120927 0.0012885 0.00142264 0.00150065 0.00130269 0.00142264 0.001502 0.00163488 0.00142264 0.00150065 0.00163488 0.00171281 0.001502 0.00163488 0.00170359 0.00185272 0.00163488 0.00171281 0.00185272 0.00193158 0.00170359 0.00185272 0.00190112 0.00206526 0.00185272 0.00193158 0.00206526 0.00215667 0.00171281 0.00169029 0.00193158 0.00194224 0.00169029 0.00166778 0.00194224 0.00187453 0.00193158 0.00194224 0.00215667 0.00216632 0.00194224 0.00187453 0.00216632 0.00208897 0.000638393 0.000526159 0.000650782 0.000458565 0.000526159 0.000413924 0.000458565 0.000285603 0.000650782 0.000458565 0.000663172 0.000391872 0.00086589 0.00125344 0.000892648 0.00132071 0.00125344 0.00164098 0.00132071 0.00170839 0.000892648 0.00132071 0.000919406 0.00134208 0.00132071 0.00170839 0.00134208 0.00173845 0.000688654 0.000710524 0.000812769 0.000831744 0.000710524 0.000732394 0.000831744 0.000842816 0.000812769 0.000831744 0.000936884 0.000968941 0.000831744 0.000842816 0.000968941 0.000953237 0.000663172 0.000391872 0.000695625 0.00037169 0.000695625 0.00037169 0.000760467 0.000394046 0.00037169 0 0.000394046 0 0.00140001 0.00167337 0.0015205 0.00183187 0.00167337 0.00190112 0.00183187 0.00208021 0.0015205 0.00183187 0.00164098 0.00196108 0.00183187 0.00208021 0.00196108 0.00222787 0.000413924 0.000336441 0.000285603 0.000193737 0.000336441 0.000319602 0.000193737 0.000159801 0.000193737 0.000159801 0 0 0.000760467 0.000394046 0.00084137 0.000433133 0.000394046 0 0.000433133 0 0.00084137 0.000433133 0.000927616 0.000476504 0.000433133 0 0.000476504 0 0.000919406 0.00134208 0.000891622 0.00132458 0.00134208 0.00173845 0.00132458 0.0017136 0.000891622 0.00132458 0.000863839 0.00125105 0.00132458 0.0017136 0.00125105 0.00163826 0.000820217 0.00097513 0.000959543 0.00114687 0.00097513 0.00113004 0.00114687 0.00130269 0.000959543 0.00114687 0.00109887 0.0013212 0.00114687 0.00130269 0.0013212 0.001502 0.00109887 0.0013212 0.00124944 0.00149995 0.0013212 0.001502 0.00149995 0.00170359 0.00124944 0.00149995 0.00140001 0.00167337 0.00149995 0.00170359 0.00167337 0.00190112 0.00127428 0.00117031 0.00147103 0.00135553 0.00117031 0.00106634 0.00135553 0.00118756 0.00147103 0.00135553 0.00166778 0.00153918 0.00135553 0.00118756 0.00153918 0.00134149 0.000543943 0.000528387 0.000478934 0.000440944 0.000528387 0.000512832 0.000440944 0.000416217 0.000478934 0.000440944 0.000413924 0.000336441 0.000440944 0.000416217 0.000336441 0.000319602 0.00169566 0.00207813 0.00286076 0.00366499 0.00286076 0.00366499 0.00473524 0.00645942 0.00041016 0.00020508 0.000826491 0.000448175 0.00020508 0 0.000448175 0 0.000826491 0.000448175 0.00170017 0.00090784 0.000448175 0 0.00090784 0 0.00106634 0.000864757 0.00118756 0.000969517 0.000864757 0.000663172 0.000969517 0.000695625 0.00118756 0.000969517 0.00134149 0.00107961 0.000969517 0.000695625 0.00107961 0.000760467 0.00090784 0 0.00179424 0 0.00179424 0 0.00372698 0 0.00166778 0.00153918 0.00187453 0.00173049 0.00153918 0.00134149 0.00173049 0.00150328 0.00187453 0.00173049 0.00208897 0.00192153 0.00173049 0.00150328 0.00192153 0.00166652 0.00178642 0.00290131 0.00219591 0.00373342 0.00290131 0.00473524 0.00373342 0.00648943 0.000619485 0.000789992 0.000727118 0.000955183 0.000789992 0.000960499 0.000955183 0.00136101 0.000727118 0.000955183 0.000834751 0.00116034 0.000960499 0.00130925 0.00136101 0.00201207 0.00130925 0.00169566 0.00201207 0.00286076 0.00136101 0.00201207 0.00178642 0.00290131 0.00201207 0.00286076 0.00290131 0.00473524 0.000484747 0.000548252 0.000722623 0.000841795 0.000548252 0.000611757 0.000841795 0.00101018 0.000722623 0.000841795 0.000960499 0.00130925 0.000841795 0.00101018 0.00130925 0.00169566 0.000948017 0.00182372 0 0 0.00182372 0.00374778 0 0 0.000611757 0.000656224 0.00101018 0.00117185 0.000656224 0.00070069 0.00117185 0.00128065 0.00101018 0.00117185 0.00169566 0.00207813 0.00117185 0.00128065 0.00207813 0.00240533 0.00070069 0.000677232 0.00128065 0.00132309 0.000677232 0.000653774 0.00132309 0.00126494 0.00128065 0.00132309 0.00240533 0.00251879 0.00132309 0.00126494 0.00251879 0.00246109 0.000653774 0.000531967 0.00126494 0.00110623 0.000531967 0.00041016 0.00110623 0.000826491 0.00126494 0.00110623 0.00246109 0.00219626 0.00110623 0.000826491 0.00219626 0.00170017 0.000834751 0.00116034 0.000894017 0.00134775 0.00116034 0.00178642 0.00134775 0.00219591 0.000894017 0.00134775 0.000953282 0.00146671 0.00134775 0.00219591 0.00146671 0.00253832 0.00166652 0.00133035 0.00181743 0.00144953 0.00133035 0.000927616 0.00144953 0.00100966 0.00181743 0.00144953 0.00194513 0.00155012 0.00144953 0.00100966 0.00155012 0.00107848 0.000927616 0.000476504 0.00100966 0.000518191 0.000476504 0 0.000518191 0 0.00100966 0.000518191 0.00107848 0.000553496 0.000518191 0 0.000553496 0 0.00155012 0.00107848 0.00161702 0.00112687 0.00161702 0.00112687 0.00164906 0.00114727 0.00107848 0.000553496 0.00112687 0.000577948 0.000553496 0 0.000577948 0 0.00112687 0.000577948 0.00114727 0.000588791 0.000577948 0 0.000588791 0 0.000953282 0.00146671 0.000915445 0.00150813 0.00146671 0.00253832 0.00150813 0.00265404 0.000915445 0.00150813 0.000877607 0.00143308 0.00150813 0.00265404 0.00143308 0.00258685 0.00215667 0.00216632 0.00236039 0.00237017 0.00216632 0.00208897 0.00237017 0.00228373 0.00236039 0.00237017 0.00252714 0.00253864 0.00237017 0.00228373 0.00253864 0.00244579 0.00208897 0.00192153 0.00228373 0.00209875 0.00192153 0.00166652 0.00209875 0.00181743 0.00228373 0.00209875 0.00244579 0.00224648 0.00209875 0.00181743 0.00224648 0.00194513 0.00252714 0.00253864 0.00264255 0.00265134 0.00264255 0.00265134 0.0026888 0.00270098 0.000432309 0 0.000342453 0 0.000342453 0 0.000237627 0 0.000429209 0.00034126 0 0 0.00034126 0.000237341 0 0 0.00012112 0 0 0 0.000877607 0.00143308 0.000710547 0.00124776 0.00143308 0.00258685 0.00124776 0.00230297 0.000710547 0.00124776 0.000543486 0.000926817 0.00124776 0.00230297 0.000926817 0.00177683 0.000543486 0.000926817 0.000271743 0.000501939 0.000926817 0.00177683 0.000501939 0.000948017 0.000271743 0.000501939 0 0 0.000501939 0.000948017 0 0 0.0133717 0.0124982 0.0142776 0.0133426 0.0124982 0.0103944 0.0133426 0.0110724 0.0142776 0.0133426 0.0142697 0.013324 0.0133426 0.0110724 0.013324 0.0110655 0.00173845 0.00208525 0.0017136 0.00205708 0.00208525 0.00236867 0.00205708 0.00233681 0.0017136 0.00205708 0.00163826 0.00195312 0.00205708 0.00233681 0.00195312 0.00222265 0.00236867 0.00257482 0.00233681 0.00253929 0.00257482 0.0026888 0.00253929 0.00265382 0.00163826 0.00195312 0.00146223 0.0017786 0.00195312 0.00222265 0.0017786 0.00202275 0.00146223 0.0017786 0.0012862 0.00152665 0.0017786 0.00202275 0.00152665 0.00174074 0.0133914 0.0142851 0.0125184 0.0133526 0.0142851 0.0142697 0.0133526 0.0133277 0.0125184 0.0133526 0.0104105 0.0110812 0.0133526 0.0133277 0.0110812 0.0110696 0.0133692 0.0133717 0.0143002 0.0142776 0.0133821 0.0143002 0.0133914 0.0142851 0.0143002 0.0142776 0.0142851 0.0142697 0.0012862 0.00152665 0.00099738 0.00121431 0.00152665 0.00174074 0.00121431 0.00138014 0.00099738 0.00121431 0.000708557 0.000840765 0.00121431 0.00138014 0.000840765 0.000958597 0.00174074 0.00189213 0.00138014 0.00150339 0.00138014 0.00150339 0.000958597 0.00104312 0.00150339 0.00157033 0.00104312 0.00109185 0.000708557 0.000840765 0.000354279 0.000431714 0.000840765 0.000958597 0.000431714 0.000490908 0.000354279 0.000431714 0 0 0.000431714 0.000490908 0 0 0.000958597 0.00104312 0.000490908 0.000534338 0.00104312 0.00109185 0.000534338 0.000559403 0.000490908 0.000534338 0 0 0.000534338 0.000559403 0 0 0.00270098 0.00260075 0.00266399 0.00256868 0.00265382 0.00266399 0.00252445 0.00253851 0.00266399 0.00256868 0.00253851 0.00244507 0.00206678 0.00164906 0.00204155 0.00162568 0.000588791 0 0.000579423 0 0.000579423 0 0.000551978 0 0.000551978 0 0.000503024 0 0.000503024 0 0.000432309 0 0.000559403 0.000560717 0 0 0.000560717 0.000540567 0 0 0.000540567 0.000496657 0 0 0.000496657 0.000429209 0 0 0.00194071 0.00175407 0.00186338 0.0016824 0.00175407 0.00155003 0.0016824 0.00148164 0.00186338 0.0016824 0.00176945 0.00160007 0.0016824 0.00148164 0.00160007 0.00140731 0.00155003 0.00131758 0.00148164 0.00126381 0.00131758 0.0010742 0.00126381 0.00103147 0.00148164 0.00126381 0.00140731 0.0012041 0.00126381 0.00103147 0.0012041 0.000980055 0.00176945 0.00160007 0.00165331 0.00149297 0.00160007 0.00140731 0.00149297 0.00131367 0.00165331 0.00149297 0.00152136 0.00137509 0.00149297 0.00131367 0.00137509 0.00121622 0.00140731 0.0012041 0.00131367 0.0011217 0.0012041 0.000980055 0.0011217 0.000913626 0.00131367 0.0011217 0.00121622 0.00103232 0.0011217 0.000913626 0.00103232 0.000842193 0.00191435 0.00184613 0.00172668 0.00166347 0.00184613 0.00175975 0.00166347 0.00158811 0.00172668 0.00166347 0.00152315 0.00146269 0.00166347 0.00158811 0.00146269 0.00139443 0.00175975 0.00164919 0.00158811 0.00148621 0.00164919 0.00152136 0.00148621 0.00137226 0.00158811 0.00148621 0.00139443 0.00130555 0.00148621 0.00137226 0.00130555 0.00121173 0.00152315 0.00146269 0.00129288 0.00124595 0.00146269 0.00139443 0.00124595 0.00119148 0.00129288 0.00124595 0.00105317 0.00101581 0.00124595 0.00119148 0.00101581 0.000968758 0.00139443 0.00130555 0.00119148 0.00111325 0.00130555 0.00121173 0.00111325 0.00102712 0.00119148 0.00111325 0.000968758 0.000905798 0.00111325 0.00102712 0.000905798 0.000837078 0.00207813 0.00224173 0.00287156 0.00300026 0.00224173 0.00240533 0.00300026 0.00317018 0.00287156 0.00300026 0.00366499 0.00414276 0.00300026 0.00317018 0.00414276 0.00435775 0.00366499 0.00414276 0.0050622 0.00536808 0.00414276 0.00435775 0.00536808 0.00568492 0.0050622 0.00536808 0.00645942 0.00715583 0.00536808 0.00568492 0.00715583 0.00754259 0.00240533 0.00246206 0.00317018 0.00330334 0.00246206 0.00251879 0.00330334 0.00334913 0.00317018 0.00330334 0.00435775 0.0045426 0.00330334 0.00334913 0.0045426 0.00461767 0.00251879 0.00248994 0.00334913 0.00336259 0.00248994 0.00246109 0.00336259 0.00328653 0.00334913 0.00336259 0.00461767 0.00464108 0.00336259 0.00328653 0.00464108 0.00455759 0.00435775 0.0045426 0.00568492 0.00593026 0.0045426 0.00461767 0.00593026 0.00603233 0.00568492 0.00593026 0.00754259 0.00786251 0.00593026 0.00603233 0.00786251 0.00799648 0.00461767 0.00464108 0.00603233 0.00607254 0.00464108 0.00455759 0.00607254 0.00597613 0.00603233 0.00607254 0.00799648 0.00805502 0.00607254 0.00597613 0.00805502 0.00794659 0.00246109 0.00232867 0.00328653 0.00317383 0.00232867 0.00219626 0.00317383 0.00295298 0.00328653 0.00317383 0.00455759 0.00441614 0.00317383 0.00295298 0.00441614 0.00414539 0.00219626 0.00194822 0.00295298 0.0026921 0.00194822 0.00170017 0.0026921 0.00229508 0.00295298 0.0026921 0.00414539 0.00380595 0.0026921 0.00229508 0.00380595 0.00329007 0.00455759 0.00441614 0.00597613 0.00580981 0.00441614 0.00414539 0.00580981 0.00547676 0.00597613 0.00580981 0.00794659 0.00775352 0.00580981 0.00547676 0.00775352 0.00735507 0.00414539 0.00380595 0.00547676 0.00506264 0.00380595 0.00329007 0.00506264 0.00441165 0.00547676 0.00506264 0.00735507 0.00685701 0.00506264 0.00441165 0.00685701 0.00605194 0.00170017 0.00130401 0.00229508 0.00184485 0.00130401 0.00090784 0.00184485 0.00135104 0.00229508 0.00184485 0.00329007 0.00271115 0.00184485 0.00135104 0.00271115 0.00179424 0.00329007 0.00271115 0.00441165 0.00365485 0.00271115 0.00179424 0.00365485 0.00276061 0.00441165 0.00365485 0.00605194 0.00512917 0.00365485 0.00276061 0.00512917 0.00372698 0.00219591 0.00296467 0.00236712 0.00310214 0.00296467 0.00373342 0.00310214 0.00422306 0.00236712 0.00310214 0.00253832 0.00327741 0.00310214 0.00422306 0.00327741 0.0044442 0.00373342 0.00511143 0.00422306 0.00542711 0.00511143 0.00648943 0.00542711 0.00719764 0.00422306 0.00542711 0.0044442 0.0057511 0.00542711 0.00719764 0.0057511 0.00759197 0.00253832 0.00327741 0.00259618 0.00341548 0.00327741 0.0044442 0.00341548 0.0046344 0.00259618 0.00341548 0.00265404 0.00346095 0.00341548 0.0046344 0.00346095 0.00471054 0.0044442 0.0057511 0.0046344 0.00600257 0.0057511 0.00759197 0.00600257 0.00791862 0.0046344 0.00600257 0.00471054 0.00610669 0.00600257 0.00791862 0.00610669 0.00805548 0.00265404 0.00346095 0.00262045 0.00347386 0.00346095 0.00471054 0.00347386 0.00473412 0.00262045 0.00347386 0.00258685 0.0033922 0.00347386 0.00473412 0.0033922 0.00464699 0.00471054 0.00610669 0.00473412 0.00614816 0.00610669 0.00805548 0.00614816 0.00811612 0.00473412 0.00614816 0.00464699 0.00604941 0.00614816 0.00811612 0.00604941 0.00800639 0.00152136 0.00137509 0.00137226 0.00123731 0.00137509 0.00121622 0.00123731 0.00108967 0.00137226 0.00123731 0.00121173 0.00108787 0.00123731 0.00108967 0.00108787 0.000959033 0.00121622 0.00103232 0.00108967 0.000933008 0.00103232 0.000842193 0.000933008 0.000758061 0.00108967 0.000933008 0.000959033 0.000819663 0.000933008 0.000758061 0.000819663 0.000666914 0.00258685 0.0033922 0.00244491 0.0032733 0.0033922 0.00464699 0.0032733 0.00450057 0.00244491 0.0032733 0.00230297 0.00304293 0.0032733 0.00450057 0.00304293 0.00422146 0.00121173 0.00108787 0.00102712 0.000930219 0.00108787 0.000959033 0.000930219 0.000818576 0.00102712 0.000930219 0.000837078 0.000755005 0.000930219 0.000818576 0.000755005 0.000665338 0.000959033 0.000819663 0.000818576 0.000697368 0.000819663 0.000666914 0.000697368 0.000567936 0.000818576 0.000697368 0.000665338 0.000567347 0.000697368 0.000567936 0.000567347 0.00046214 0.000842193 0.000642047 0.000758061 0.000578273 0.000642047 0.000432309 0.000578273 0.000387381 0.000758061 0.000578273 0.000666914 0.000508118 0.000578273 0.000387381 0.000508118 0.000342453 0.00464699 0.00604941 0.00450057 0.0058799 0.00604941 0.00800639 0.0058799 0.00781132 0.00450057 0.0058799 0.00422146 0.0055404 0.0058799 0.00781132 0.0055404 0.00740796 0.000666914 0.000508118 0.000567936 0.000432873 0.000508118 0.000342453 0.000432873 0.00029004 0.000567936 0.000432873 0.00046214 0.00035198 0.000432873 0.00029004 0.00035198 0.000237627 0.00230297 0.00304293 0.0020399 0.00277124 0.00304293 0.00422146 0.00277124 0.00387371 0.0020399 0.00277124 0.00177683 0.00235986 0.00277124 0.00387371 0.00235986 0.00334668 0.00422146 0.0055404 0.00387371 0.00511914 0.0055404 0.00740796 0.00511914 0.00690424 0.00387371 0.00511914 0.00334668 0.00445838 0.00511914 0.00690424 0.00445838 0.00609115 0.000837078 0.000755005 0.000637638 0.000575508 0.000755005 0.000665338 0.000575508 0.000506507 0.000637638 0.000575508 0.000429209 0.000385235 0.000575508 0.000506507 0.000385235 0.00034126 0.00177683 0.00235986 0.00136242 0.00189621 0.00235986 0.00334668 0.00189621 0.00275534 0.00136242 0.00189621 0.000948017 0.00138587 0.00189621 0.00275534 0.00138587 0.00182372 0.000665338 0.000567347 0.000506507 0.000432091 0.000567347 0.00046214 0.000432091 0.000351701 0.000506507 0.000432091 0.00034126 0.000289301 0.000432091 0.000351701 0.000289301 0.000237341 0.00334668 0.00445838 0.00275534 0.00369133 0.00445838 0.00609115 0.00369133 0.00516006 0.00275534 0.00369133 0.00182372 0.00278575 0.00369133 0.00516006 0.00278575 0.00374778 0.00253079 0.00258667 0.0025528 0.00262283 0.00258667 0.00264255 0.00262283 0.00266568 0.0025528 0.00262283 0.00257482 0.00263181 0.00262283 0.00266568 0.00263181 0.0026888 0.00473524 0.00559733 0.00561233 0.00715369 0.00559733 0.00645942 0.00715369 0.00807931 0.00561233 0.00715369 0.00648943 0.00809218 0.00715369 0.00807931 0.00809218 0.00917338 0.00046214 0.00035198 0.000351701 0.000269095 0.00035198 0.000237627 0.000269095 0.000180041 0.000351701 0.000269095 0.000237341 0.000179956 0.000269095 0.000180041 0.000179956 0.00012112 0.00645942 0.00715583 0.00807931 0.00890631 0.00715583 0.00754259 0.00890631 0.00939722 0.00807931 0.00890631 0.00917338 0.0101273 0.00890631 0.00939722 0.0101273 0.0106902 0.00648943 0.00809218 0.00719764 0.00893144 0.00809218 0.00917338 0.00893144 0.0101395 0.00719764 0.00893144 0.00759197 0.00943052 0.00893144 0.0101395 0.00943052 0.0107109 0.00917338 0.0101273 0.0101395 0.0111998 0.0101273 0.0106902 0.0111998 0.0118288 0.0101395 0.0111998 0.0107109 0.0118375 0.0111998 0.0118288 0.0118375 0.0125111 0.000237627 0.000118814 0.0001