# vtk DataFile Version 3.0
#This file was generated by the deal.II library on 2021/4/23 at 0:45:38
ASCII
DATASET UNSTRUCTURED_GRID

FIELD FieldData 2
CYCLE 1 1 int
8
TIME 1 1 double
0.016
POINTS 396 double
-1 -1 0
-0.75 -1 0
-1 -0.75 0
-0.75 -0.75 0
-0.75 -1 0
-0.5 -1 0
-0.75 -0.75 0
-0.5 -0.75 0
-1 -0.75 0
-0.75 -0.75 0
-1 -0.5 0
-0.75 -0.5 0
-0.75 -0.75 0
-0.5 -0.75 0
-0.75 -0.5 0
-0.5 -0.5 0
-0.5 -1 0
-0.25 -1 0
-0.5 -0.75 0
-0.25 -0.75 0
-0.25 -1 0
0 -1 0
-0.25 -0.75 0
0 -0.75 0
-0.5 -0.75 0
-0.25 -0.75 0
-0.5 -0.5 0
-0.25 -0.5 0
-0.25 -0.75 0
0 -0.75 0
-0.25 -0.5 0
0 -0.5 0
-1 -0.5 0
-0.75 -0.5 0
-1 -0.25 0
-0.75 -0.25 0
-0.75 -0.5 0
-0.5 -0.5 0
-0.75 -0.25 0
-0.5 -0.25 0
-1 -0.25 0
-0.75 -0.25 0
-1 0 0
-0.75 0 0
-0.75 -0.25 0
-0.5 -0.25 0
-0.75 0 0
-0.5 0 0
-0.5 -0.5 0
-0.25 -0.5 0
-0.5 -0.25 0
-0.25 -0.25 0
-0.25 -0.5 0
0 -0.5 0
-0.25 -0.25 0
0 -0.25 0
-0.5 -0.25 0
-0.25 -0.25 0
-0.5 0 0
-0.25 0 0
-0.25 -0.25 0
0 -0.25 0
-0.25 0 0
0 0 0
0 -1 0
0.25 -1 0
0 -0.75 0
0.25 -0.75 0
0.25 -1 0
0.5 -1 0
0.25 -0.75 0
0.5 -0.75 0
0 -0.75 0
0.25 -0.75 0
0 -0.5 0
0.25 -0.5 0
0.25 -0.75 0
0.5 -0.75 0
0.25 -0.5 0
0.5 -0.5 0
0.5 -1 0
0.75 -1 0
0.5 -0.75 0
0.75 -0.75 0
0.75 -1 0
1 -1 0
0.75 -0.75 0
1 -0.75 0
0 -0.5 0
0.25 -0.5 0
0 -0.25 0
0.25 -0.25 0
0 -0.25 0
0.25 -0.25 0
0 0 0
0.25 0 0
-1 0 0
-0.75 0 0
-1 0.25 0
-0.75 0.25 0
-0.75 0 0
-0.5 0 0
-0.75 0.25 0
-0.5 0.25 0
-1 0.25 0
-0.75 0.25 0
-1 0.5 0
-0.75 0.5 0
-0.75 0.25 0
-0.5 0.25 0
-0.75 0.5 0
-0.5 0.5 0
-0.5 0 0
-0.25 0 0
-0.5 0.25 0
-0.25 0.25 0
-0.25 0 0
0 0 0
-0.25 0.25 0
0 0.25 0
-0.5 0.25 0
-0.25 0.25 0
-0.5 0.5 0
-0.25 0.5 0
-0.25 0.25 0
0 0.25 0
-0.25 0.5 0
0 0.5 0
-1 0.5 0
-0.75 0.5 0
-1 0.75 0
-0.75 0.75 0
-0.75 0.5 0
-0.5 0.5 0
-0.75 0.75 0
-0.5 0.75 0
-1 0.75 0
-0.75 0.75 0
-1 1 0
-0.75 1 0
-0.75 0.75 0
-0.5 0.75 0
-0.75 1 0
-0.5 1 0
-0.5 0.5 0
-0.25 0.5 0
-0.5 0.75 0
-0.25 0.75 0
-0.25 0.5 0
0 0.5 0
-0.25 0.75 0
0 0.75 0
-0.5 0.75 0
-0.25 0.75 0
-0.5 1 0
-0.25 1 0
-0.25 0.75 0
0 0.75 0
-0.25 1 0
0 1 0
0.5 -0.5 0
0.625 -0.5 0
0.5 -0.375 0
0.625 -0.375 0
0.625 -0.5 0
0.75 -0.5 0
0.625 -0.375 0
0.75 -0.375 0
0.5 -0.375 0
0.625 -0.375 0
0.5 -0.25 0
0.625 -0.25 0
0.625 -0.375 0
0.75 -0.375 0
0.625 -0.25 0
0.75 -0.25 0
0.875 -0.5 0
1 -0.5 0
0.875 -0.375 0
1 -0.375 0
0.5 -0.125 0
0.625 -0.125 0
0.5 0 0
0.625 0 0
0.875 -0.125 0
1 -0.125 0
0.875 0 0
1 0 0
0.5 -0.75 0
0.625 -0.75 0
0.5 -0.625 0
0.625 -0.625 0
0.625 -0.75 0
0.75 -0.75 0
0.625 -0.625 0
0.75 -0.625 0
0.5 -0.625 0
0.625 -0.625 0
0.5 -0.5 0
0.625 -0.5 0
0.625 -0.625 0
0.75 -0.625 0
0.625 -0.5 0
0.75 -0.5 0
0.75 -0.75 0
0.875 -0.75 0
0.75 -0.625 0
0.875 -0.625 0
0.875 -0.75 0
1 -0.75 0
0.875 -0.625 0
1 -0.625 0
0.75 -0.625 0
0.875 -0.625 0
0.75 -0.5 0
0.875 -0.5 0
0.875 -0.625 0
1 -0.625 0
0.875 -0.5 0
1 -0.5 0
0.25 -0.5 0
0.375 -0.5 0
0.25 -0.375 0
0.375 -0.375 0
0.375 -0.5 0
0.5 -0.5 0
0.375 -0.375 0
0.5 -0.375 0
0.25 -0.375 0
0.375 -0.375 0
0.25 -0.25 0
0.375 -0.25 0
0.375 -0.375 0
0.5 -0.375 0
0.375 -0.25 0
0.5 -0.25 0
0.25 -0.25 0
0.375 -0.25 0
0.25 -0.125 0
0.375 -0.125 0
0.375 -0.25 0
0.5 -0.25 0
0.375 -0.125 0
0.5 -0.125 0
0.25 -0.125 0
0.375 -0.125 0
0.25 0 0
0.375 0 0
0.375 -0.125 0
0.5 -0.125 0
0.375 0 0
0.5 0 0
0.75 -0.5 0
0.8125 -0.5 0
0.75 -0.4375 0
0.8125 -0.4375 0
0.8125 -0.5 0
0.875 -0.5 0
0.8125 -0.4375 0
0.875 -0.4375 0
0.75 -0.4375 0
0.8125 -0.4375 0
0.75 -0.375 0
0.8125 -0.375 0
0.8125 -0.4375 0
0.875 -0.4375 0
0.8125 -0.375 0
0.875 -0.375 0
0.75 -0.375 0
0.8125 -0.375 0
0.75 -0.3125 0
0.8125 -0.3125 0
0.8125 -0.375 0
0.875 -0.375 0
0.8125 -0.3125 0
0.875 -0.3125 0
0.75 -0.3125 0
0.8125 -0.3125 0
0.75 -0.25 0
0.8125 -0.25 0
0.8125 -0.3125 0
0.875 -0.3125 0
0.8125 -0.25 0
0.875 -0.25 0
0.875 -0.375 0
0.9375 -0.375 0
0.875 -0.3125 0
0.9375 -0.3125 0
0.9375 -0.375 0
1 -0.375 0
0.9375 -0.3125 0
1 -0.3125 0
0.875 -0.3125 0
0.9375 -0.3125 0
0.875 -0.25 0
0.9375 -0.25 0
0.9375 -0.3125 0
1 -0.3125 0
0.9375 -0.25 0
1 -0.25 0
0.5 -0.25 0
0.5625 -0.25 0
0.5 -0.1875 0
0.5625 -0.1875 0
0.5625 -0.25 0
0.625 -0.25 0
0.5625 -0.1875 0
0.625 -0.1875 0
0.5 -0.1875 0
0.5625 -0.1875 0
0.5 -0.125 0
0.5625 -0.125 0
0.5625 -0.1875 0
0.625 -0.1875 0
0.5625 -0.125 0
0.625 -0.125 0
0.625 -0.25 0
0.6875 -0.25 0
0.625 -0.1875 0
0.6875 -0.1875 0
0.6875 -0.25 0
0.75 -0.25 0
0.6875 -0.1875 0
0.75 -0.1875 0
0.625 -0.1875 0
0.6875 -0.1875 0
0.625 -0.125 0
0.6875 -0.125 0
0.6875 -0.1875 0
0.75 -0.1875 0
0.6875 -0.125 0
0.75 -0.125 0
0.625 -0.125 0
0.6875 -0.125 0
0.625 -0.0625 0
0.6875 -0.0625 0
0.6875 -0.125 0
0.75 -0.125 0
0.6875 -0.0625 0
0.75 -0.0625 0
0.625 -0.0625 0
0.6875 -0.0625 0
0.625 0 0
0.6875 0 0
0.6875 -0.0625 0
0.75 -0.0625 0
0.6875 0 0
0.75 0 0
0.75 -0.25 0
0.8125 -0.25 0
0.75 -0.1875 0
0.8125 -0.1875 0
0.8125 -0.25 0
0.875 -0.25 0
0.8125 -0.1875 0
0.875 -0.1875 0
0.75 -0.1875 0
0.8125 -0.1875 0
0.75 -0.125 0
0.8125 -0.125 0
0.8125 -0.1875 0
0.875 -0.1875 0
0.8125 -0.125 0
0.875 -0.125 0
0.875 -0.25 0
0.9375 -0.25 0
0.875 -0.1875 0
0.9375 -0.1875 0
0.9375 -0.25 0
1 -0.25 0
0.9375 -0.1875 0
1 -0.1875 0
0.875 -0.1875 0
0.9375 -0.1875 0
0.875 -0.125 0
0.9375 -0.125 0
0.9375 -0.1875 0
1 -0.1875 0
0.9375 -0.125 0
1 -0.125 0
0.75 -0.125 0
0.8125 -0.125 0
0.75 -0.0625 0
0.8125 -0.0625 0
0.8125 -0.125 0
0.875 -0.125 0
0.8125 -0.0625 0
0.875 -0.0625 0
0.75 -0.0625 0
0.8125 -0.0625 0
0.75 0 0
0.8125 0 0
0.8125 -0.0625 0
0.875 -0.0625 0
0.8125 0 0
0.875 0 0

CELLS 99 495
4	0	1	3	2
4	4	5	7	6
4	8	9	11	10
4	12	13	15	14
4	16	17	19	18
4	20	21	23	22
4	24	25	27	26
4	28	29	31	30
4	32	33	35	34
4	36	37	39	38
4	40	41	43	42
4	44	45	47	46
4	48	49	51	50
4	52	53	55	54
4	56	57	59	58
4	60	61	63	62
4	64	65	67	66
4	68	69	71	70
4	72	73	75	74
4	76	77	79	78
4	80	81	83	82
4	84	85	87	86
4	88	89	91	90
4	92	93	95	94
4	96	97	99	98
4	100	101	103	102
4	104	105	107	106
4	108	109	111	110
4	112	113	115	114
4	116	117	119	118
4	120	121	123	122
4	124	125	127	126
4	128	129	131	130
4	132	133	135	134
4	136	137	139	138
4	140	141	143	142
4	144	145	147	146
4	148	149	151	150
4	152	153	155	154
4	156	157	159	158
4	160	161	163	162
4	164	165	167	166
4	168	169	171	170
4	172	173	175	174
4	176	177	179	178
4	180	181	183	182
4	184	185	187	186
4	188	189	191	190
4	192	193	195	194
4	196	197	199	198
4	200	201	203	202
4	204	205	207	206
4	208	209	211	210
4	212	213	215	214
4	216	217	219	218
4	220	221	223	222
4	224	225	227	226
4	228	229	231	230
4	232	233	235	234
4	236	237	239	238
4	240	241	243	242
4	244	245	247	246
4	248	249	251	250
4	252	253	255	254
4	256	257	259	258
4	260	261	263	262
4	264	265	267	266
4	268	269	271	270
4	272	273	275	274
4	276	277	279	278
4	280	281	283	282
4	284	285	287	286
4	288	289	291	290
4	292	293	295	294
4	296	297	299	298
4	300	301	303	302
4	304	305	307	306
4	308	309	311	310
4	312	313	315	314
4	316	317	319	318
4	320	321	323	322
4	324	325	327	326
4	328	329	331	330
4	332	333	335	334
4	336	337	339	338
4	340	341	343	342
4	344	345	347	346
4	348	349	351	350
4	352	353	355	354
4	356	357	359	358
4	360	361	363	362
4	364	365	367	366
4	368	369	371	370
4	372	373	375	374
4	376	377	379	378
4	380	381	383	382
4	384	385	387	386
4	388	389	391	390
4	392	393	395	394

CELL_TYPES 99
 9 9 9 9 9 9 9 9 9 9 9 9 9 9 9 9 9 9 9 9 9 9 9 9 9 9 9 9 9 9 9 9 9 9 9 9 9 9 9 9 9 9 9 9 9 9 9 9 9 9 9 9 9 9 9 9 9 9 9 9 9 9 9 9 9 9 9 9 9 9 9 9 9 9 9 9 9 9 9 9 9 9 9 9 9 9 9 9 9 9 9 9 9 9 9 9 9 9 9
POINT_DATA 396
SCALARS U double 1
LOOKUP_TABLE default
0 0 0 1.31317e-08 0 0 1.31317e-08 -1.42779e-07 0 1.31317e-08 0 -2.10591e-08 1.31317e-08 -1.42779e-07 -2.10591e-08 -1.29216e-06 0 0 -1.42779e-07 1.08833e-06 0 0 1.08833e-06 -6.40155e-06 -1.42779e-07 1.08833e-06 -1.29216e-06 9.73271e-06 1.08833e-06 -6.40155e-06 9.73271e-06 -3.44478e-05 0 -2.10591e-08 0 -3.1932e-08 -2.10591e-08 -1.29216e-06 -3.1932e-08 -2.97916e-06 0 -3.1932e-08 0 -1.37107e-07 -3.1932e-08 -2.97916e-06 -1.37107e-07 5.908e-08 -1.29216e-06 9.73271e-06 -2.97916e-06 2.38349e-05 9.73271e-06 -3.44478e-05 2.38349e-05 -0.000109232 -2.97916e-06 2.38349e-05 5.908e-08 1.31034e-06 2.38349e-05 -0.000109232 1.31034e-06 0 0 0 -6.40155e-06 2.84018e-05 0 0 2.84018e-05 -9.7585e-05 -6.40155e-06 2.84018e-05 -3.44478e-05 -8.77749e-05 2.84018e-05 -9.7585e-05 -8.77749e-05 0.00303951 0 0 -9.7585e-05 0.000144669 0 0 0.000144669 0 -3.44478e-05 -8.77749e-05 -0.000109232 0.000169939 -0.000109232 0.000169939 0 0 0 -1.37107e-07 0 2.31353e-08 -1.37107e-07 5.908e-08 2.31353e-08 -4.78725e-08 0 2.31353e-08 0 -4.39251e-09 2.31353e-08 -4.78725e-08 -4.39251e-09 1.65609e-08 5.908e-08 1.31034e-06 -4.78725e-08 2.06477e-08 1.31034e-06 0 2.06477e-08 0 -4.78725e-08 2.06477e-08 1.65609e-08 -4.88954e-08 2.06477e-08 0 -4.88954e-08 0 0 -4.39251e-09 0 8.89155e-10 -4.39251e-09 1.65609e-08 8.89155e-10 -4.35007e-09 0 8.89155e-10 0 0 8.89155e-10 -4.35007e-09 0 0 1.65609e-08 -4.88954e-08 -4.35007e-09 1.54016e-08 -4.88954e-08 0 1.54016e-08 0 -4.35007e-09 1.54016e-08 0 0 1.54016e-08 0 0 0 0.00303951 0.00623101 0.00623011 0.0108518 0.00623101 0.00667857 0.0108518 0.0116728 0.00623011 0.0108518 0.0066767 0.0116724 0.0108518 0.0116728 0.0116724 0.0124887 0.005239 0 0.0095294 0 0.00523779 0.00952914 0 0 0.00869861 0 0 0 -9.7585e-05 2.35422e-05 0.00147096 0.00145024 2.35422e-05 0.000144669 0.00145024 0.00164148 0.00147096 0.00145024 0.00303951 0.00623101 0.00145024 0.00164148 0.00623101 0.00667857 0.000144669 7.23347e-05 0.00164148 0.00104728 7.23347e-05 0 0.00104728 0 0.00164148 0.00104728 0.00667857 0.005239 0.00104728 0 0.005239 0 -8.77749e-05 0.00147587 4.10818e-05 0.00145543 0.00147587 0.00303951 0.00145543 0.00623011 4.10818e-05 0.00145543 0.000169939 0.00164675 0.00145543 0.00623011 0.00164675 0.0066767 0.000169939 0.00164675 8.49693e-05 0.00105082 0.00164675 0.0066767 0.00105082 0.00523779 8.49693e-05 0.00105082 0 0 0.00105082 0.00523779 0 0 0.00667857 0.00595878 0.00917569 0.00911968 0.00595878 0.005239 0.00911968 0.0073842 0.00917569 0.00911968 0.0116728 0.0106799 0.00911968 0.0073842 0.0106799 0.0095294 0.0116728 0.0106799 0.0120808 0.0116728 0.0106799 0.0095294 0.0116728 0.00961939 0.0120808 0.0116728 0.0124887 0.0116396 0.0116728 0.00961939 0.0116396 0.009804 0.0095294 0.0047647 0.00961939 0.00617947 0.0047647 0 0.00617947 0 0.00961939 0.00617947 0.009804 0.0062439 0.00617947 0 0.0062439 0 0.0066767 0.00917456 0.00595725 0.00911853 0.00917456 0.0116724 0.00911853 0.0106796 0.00595725 0.00911853 0.00523779 0.00738346 0.00911853 0.0106796 0.00738346 0.00952914 0.0116724 0.0120806 0.0106796 0.0116728 0.0120806 0.0124887 0.0116728 0.0116396 0.0106796 0.0116728 0.00952914 0.00961939 0.0116728 0.0116396 0.00961939 0.00980401 0.00952914 0.00961939 0.00476457 0.00617949 0.00961939 0.00980401 0.00617949 0.00624393 0.00476457 0.00617949 0 0 0.00617949 0.00624393 0 0 0.0124887 0.0116396 0.0116396 0.011199 0.0116396 0.009804 0.011199 0.00929623 0.0116396 0.011199 0.00980401 0.00929624 0.011199 0.00929623 0.00929624 0.00869861 0.009804 0.0062439 0.00929623 0.00603025 0.0062439 0 0.00603025 0 0.00929623 0.00603025 0.00869861 0.00434931 0.00603025 0 0.00434931 0 0.00980401 0.00929624 0.00624393 0.00603027 0.00929624 0.00869861 0.00603027 0.00434931 0.00624393 0.00603027 0 0 0.00603027 0.00434931 0 0 
