<?xml version="1.0" ?> 
<!-- 
# vtk DataFile Version 3.0
#This file was generated by the deal.II library on 21:42:40 at 2021/4/29
-->
<VTKFile type="UnstructuredGrid" version="0.1" byte_order="LittleEndian">
<UnstructuredGrid>
<Piece NumberOfPoints="65536" NumberOfCells="16384" >
  <Points>
    <DataArray type="Float32" NumberOfComponents="3" format="ascii">
-1 -1 0
-0.984375 -1 0
-1 -0.984375 0
-0.984375 -0.984375 0
-0.984375 -1 0
-0.96875 -1 0
-0.984375 -0.984375 0
-0.96875 -0.984375 0
-1 -0.984375 0
-0.984375 -0.984375 0
-1 -0.96875 0
-0.984375 -0.96875 0
-0.984375 -0.984375 0
-0.96875 -0.984375 0
-0.984375 -0.96875 0
-0.96875 -0.96875 0
-0.96875 -1 0
-0.953125 -1 0
-0.96875 -0.984375 0
-0.953125 -0.984375 0
-0.953125 -1 0
-0.9375 -1 0
-0.953125 -0.984375 0
-0.9375 -0.984375 0
-0.96875 -0.984375 0
-0.953125 -0.984375 0
-0.96875 -0.96875 0
-0.953125 -0.96875 0
-0.953125 -0.984375 0
-0.9375 -0.984375 0
-0.953125 -0.96875 0
-0.9375 -0.96875 0
-1 -0.96875 0
-0.984375 -0.96875 0
-1 -0.953125 0
-0.984375 -0.953125 0
-0.984375 -0.96875 0
-0.96875 -0.96875 0
-0.984375 -0.953125 0
-0.96875 -0.953125 0
-1 -0.953125 0
-0.984375 -0.953125 0
-1 -0.9375 0
-0.984375 -0.9375 0
-0.984375 -0.953125 0
-0.96875 -0.953125 0
-0.984375 -0.9375 0
-0.96875 -0.9375 0
-0.96875 -0.96875 0
-0.953125 -0.96875 0
-0.96875 -0.953125 0
-0.953125 -0.953125 0
-0.953125 -0.96875 0
-0.9375 -0.96875 0
-0.953125 -0.953125 0
-0.9375 -0.953125 0
-0.96875 -0.953125 0
-0.953125 -0.953125 0
-0.96875 -0.9375 0
-0.953125 -0.9375 0
-0.953125 -0.953125 0
-0.9375 -0.953125 0
-0.953125 -0.9375 0
-0.9375 -0.9375 0
-0.9375 -1 0
-0.921875 -1 0
-0.9375 -0.984375 0
-0.921875 -0.984375 0
-0.921875 -1 0
-0.90625 -1 0
-0.921875 -0.984375 0
-0.90625 -0.984375 0
-0.9375 -0.984375 0
-0.921875 -0.984375 0
-0.9375 -0.96875 0
-0.921875 -0.96875 0
-0.921875 -0.984375 0
-0.90625 -0.984375 0
-0.921875 -0.96875 0
-0.90625 -0.96875 0
-0.90625 -1 0
-0.890625 -1 0
-0.90625 -0.984375 0
-0.890625 -0.984375 0
-0.890625 -1 0
-0.875 -1 0
-0.890625 -0.984375 0
-0.875 -0.984375 0
-0.90625 -0.984375 0
-0.890625 -0.984375 0
-0.90625 -0.96875 0
-0.890625 -0.96875 0
-0.890625 -0.984375 0
-0.875 -0.984375 0
-0.890625 -0.96875 0
-0.875 -0.96875 0
-0.9375 -0.96875 0
-0.921875 -0.96875 0
-0.9375 -0.953125 0
-0.921875 -0.953125 0
-0.921875 -0.96875 0
-0.90625 -0.96875 0
-0.921875 -0.953125 0
-0.90625 -0.953125 0
-0.9375 -0.953125 0
-0.921875 -0.953125 0
-0.9375 -0.9375 0
-0.921875 -0.9375 0
-0.921875 -0.953125 0
-0.90625 -0.953125 0
-0.921875 -0.9375 0
-0.90625 -0.9375 0
-0.90625 -0.96875 0
-0.890625 -0.96875 0
-0.90625 -0.953125 0
-0.890625 -0.953125 0
-0.890625 -0.96875 0
-0.875 -0.96875 0
-0.890625 -0.953125 0
-0.875 -0.953125 0
-0.90625 -0.953125 0
-0.890625 -0.953125 0
-0.90625 -0.9375 0
-0.890625 -0.9375 0
-0.890625 -0.953125 0
-0.875 -0.953125 0
-0.890625 -0.9375 0
-0.875 -0.9375 0
-1 -0.9375 0
-0.984375 -0.9375 0
-1 -0.921875 0
-0.984375 -0.921875 0
-0.984375 -0.9375 0
-0.96875 -0.9375 0
-0.984375 -0.921875 0
-0.96875 -0.921875 0
-1 -0.921875 0
-0.984375 -0.921875 0
-1 -0.90625 0
-0.984375 -0.90625 0
-0.984375 -0.921875 0
-0.96875 -0.921875 0
-0.984375 -0.90625 0
-0.96875 -0.90625 0
-0.96875 -0.9375 0
-0.953125 -0.9375 0
-0.96875 -0.921875 0
-0.953125 -0.921875 0
-0.953125 -0.9375 0
-0.9375 -0.9375 0
-0.953125 -0.921875 0
-0.9375 -0.921875 0
-0.96875 -0.921875 0
-0.953125 -0.921875 0
-0.96875 -0.90625 0
-0.953125 -0.90625 0
-0.953125 -0.921875 0
-0.9375 -0.921875 0
-0.953125 -0.90625 0
-0.9375 -0.90625 0
-1 -0.90625 0
-0.984375 -0.90625 0
-1 -0.890625 0
-0.984375 -0.890625 0
-0.984375 -0.90625 0
-0.96875 -0.90625 0
-0.984375 -0.890625 0
-0.96875 -0.890625 0
-1 -0.890625 0
-0.984375 -0.890625 0
-1 -0.875 0
-0.984375 -0.875 0
-0.984375 -0.890625 0
-0.96875 -0.890625 0
-0.984375 -0.875 0
-0.96875 -0.875 0
-0.96875 -0.90625 0
-0.953125 -0.90625 0
-0.96875 -0.890625 0
-0.953125 -0.890625 0
-0.953125 -0.90625 0
-0.9375 -0.90625 0
-0.953125 -0.890625 0
-0.9375 -0.890625 0
-0.96875 -0.890625 0
-0.953125 -0.890625 0
-0.96875 -0.875 0
-0.953125 -0.875 0
-0.953125 -0.890625 0
-0.9375 -0.890625 0
-0.953125 -0.875 0
-0.9375 -0.875 0
-0.9375 -0.9375 0
-0.921875 -0.9375 0
-0.9375 -0.921875 0
-0.921875 -0.921875 0
-0.921875 -0.9375 0
-0.90625 -0.9375 0
-0.921875 -0.921875 0
-0.90625 -0.921875 0
-0.9375 -0.921875 0
-0.921875 -0.921875 0
-0.9375 -0.90625 0
-0.921875 -0.90625 0
-0.921875 -0.921875 0
-0.90625 -0.921875 0
-0.921875 -0.90625 0
-0.90625 -0.90625 0
-0.90625 -0.9375 0
-0.890625 -0.9375 0
-0.90625 -0.921875 0
-0.890625 -0.921875 0
-0.890625 -0.9375 0
-0.875 -0.9375 0
-0.890625 -0.921875 0
-0.875 -0.921875 0
-0.90625 -0.921875 0
-0.890625 -0.921875 0
-0.90625 -0.90625 0
-0.890625 -0.90625 0
-0.890625 -0.921875 0
-0.875 -0.921875 0
-0.890625 -0.90625 0
-0.875 -0.90625 0
-0.9375 -0.90625 0
-0.921875 -0.90625 0
-0.9375 -0.890625 0
-0.921875 -0.890625 0
-0.921875 -0.90625 0
-0.90625 -0.90625 0
-0.921875 -0.890625 0
-0.90625 -0.890625 0
-0.9375 -0.890625 0
-0.921875 -0.890625 0
-0.9375 -0.875 0
-0.921875 -0.875 0
-0.921875 -0.890625 0
-0.90625 -0.890625 0
-0.921875 -0.875 0
-0.90625 -0.875 0
-0.90625 -0.90625 0
-0.890625 -0.90625 0
-0.90625 -0.890625 0
-0.890625 -0.890625 0
-0.890625 -0.90625 0
-0.875 -0.90625 0
-0.890625 -0.890625 0
-0.875 -0.890625 0
-0.90625 -0.890625 0
-0.890625 -0.890625 0
-0.90625 -0.875 0
-0.890625 -0.875 0
-0.890625 -0.890625 0
-0.875 -0.890625 0
-0.890625 -0.875 0
-0.875 -0.875 0
-0.875 -1 0
-0.859375 -1 0
-0.875 -0.984375 0
-0.859375 -0.984375 0
-0.859375 -1 0
-0.84375 -1 0
-0.859375 -0.984375 0
-0.84375 -0.984375 0
-0.875 -0.984375 0
-0.859375 -0.984375 0
-0.875 -0.96875 0
-0.859375 -0.96875 0
-0.859375 -0.984375 0
-0.84375 -0.984375 0
-0.859375 -0.96875 0
-0.84375 -0.96875 0
-0.84375 -1 0
-0.828125 -1 0
-0.84375 -0.984375 0
-0.828125 -0.984375 0
-0.828125 -1 0
-0.8125 -1 0
-0.828125 -0.984375 0
-0.8125 -0.984375 0
-0.84375 -0.984375 0
-0.828125 -0.984375 0
-0.84375 -0.96875 0
-0.828125 -0.96875 0
-0.828125 -0.984375 0
-0.8125 -0.984375 0
-0.828125 -0.96875 0
-0.8125 -0.96875 0
-0.875 -0.96875 0
-0.859375 -0.96875 0
-0.875 -0.953125 0
-0.859375 -0.953125 0
-0.859375 -0.96875 0
-0.84375 -0.96875 0
-0.859375 -0.953125 0
-0.84375 -0.953125 0
-0.875 -0.953125 0
-0.859375 -0.953125 0
-0.875 -0.9375 0
-0.859375 -0.9375 0
-0.859375 -0.953125 0
-0.84375 -0.953125 0
-0.859375 -0.9375 0
-0.84375 -0.9375 0
-0.84375 -0.96875 0
-0.828125 -0.96875 0
-0.84375 -0.953125 0
-0.828125 -0.953125 0
-0.828125 -0.96875 0
-0.8125 -0.96875 0
-0.828125 -0.953125 0
-0.8125 -0.953125 0
-0.84375 -0.953125 0
-0.828125 -0.953125 0
-0.84375 -0.9375 0
-0.828125 -0.9375 0
-0.828125 -0.953125 0
-0.8125 -0.953125 0
-0.828125 -0.9375 0
-0.8125 -0.9375 0
-0.8125 -1 0
-0.796875 -1 0
-0.8125 -0.984375 0
-0.796875 -0.984375 0
-0.796875 -1 0
-0.78125 -1 0
-0.796875 -0.984375 0
-0.78125 -0.984375 0
-0.8125 -0.984375 0
-0.796875 -0.984375 0
-0.8125 -0.96875 0
-0.796875 -0.96875 0
-0.796875 -0.984375 0
-0.78125 -0.984375 0
-0.796875 -0.96875 0
-0.78125 -0.96875 0
-0.78125 -1 0
-0.765625 -1 0
-0.78125 -0.984375 0
-0.765625 -0.984375 0
-0.765625 -1 0
-0.75 -1 0
-0.765625 -0.984375 0
-0.75 -0.984375 0
-0.78125 -0.984375 0
-0.765625 -0.984375 0
-0.78125 -0.96875 0
-0.765625 -0.96875 0
-0.765625 -0.984375 0
-0.75 -0.984375 0
-0.765625 -0.96875 0
-0.75 -0.96875 0
-0.8125 -0.96875 0
-0.796875 -0.96875 0
-0.8125 -0.953125 0
-0.796875 -0.953125 0
-0.796875 -0.96875 0
-0.78125 -0.96875 0
-0.796875 -0.953125 0
-0.78125 -0.953125 0
-0.8125 -0.953125 0
-0.796875 -0.953125 0
-0.8125 -0.9375 0
-0.796875 -0.9375 0
-0.796875 -0.953125 0
-0.78125 -0.953125 0
-0.796875 -0.9375 0
-0.78125 -0.9375 0
-0.78125 -0.96875 0
-0.765625 -0.96875 0
-0.78125 -0.953125 0
-0.765625 -0.953125 0
-0.765625 -0.96875 0
-0.75 -0.96875 0
-0.765625 -0.953125 0
-0.75 -0.953125 0
-0.78125 -0.953125 0
-0.765625 -0.953125 0
-0.78125 -0.9375 0
-0.765625 -0.9375 0
-0.765625 -0.953125 0
-0.75 -0.953125 0
-0.765625 -0.9375 0
-0.75 -0.9375 0
-0.875 -0.9375 0
-0.859375 -0.9375 0
-0.875 -0.921875 0
-0.859375 -0.921875 0
-0.859375 -0.9375 0
-0.84375 -0.9375 0
-0.859375 -0.921875 0
-0.84375 -0.921875 0
-0.875 -0.921875 0
-0.859375 -0.921875 0
-0.875 -0.90625 0
-0.859375 -0.90625 0
-0.859375 -0.921875 0
-0.84375 -0.921875 0
-0.859375 -0.90625 0
-0.84375 -0.90625 0
-0.84375 -0.9375 0
-0.828125 -0.9375 0
-0.84375 -0.921875 0
-0.828125 -0.921875 0
-0.828125 -0.9375 0
-0.8125 -0.9375 0
-0.828125 -0.921875 0
-0.8125 -0.921875 0
-0.84375 -0.921875 0
-0.828125 -0.921875 0
-0.84375 -0.90625 0
-0.828125 -0.90625 0
-0.828125 -0.921875 0
-0.8125 -0.921875 0
-0.828125 -0.90625 0
-0.8125 -0.90625 0
-0.875 -0.90625 0
-0.859375 -0.90625 0
-0.875 -0.890625 0
-0.859375 -0.890625 0
-0.859375 -0.90625 0
-0.84375 -0.90625 0
-0.859375 -0.890625 0
-0.84375 -0.890625 0
-0.875 -0.890625 0
-0.859375 -0.890625 0
-0.875 -0.875 0
-0.859375 -0.875 0
-0.859375 -0.890625 0
-0.84375 -0.890625 0
-0.859375 -0.875 0
-0.84375 -0.875 0
-0.84375 -0.90625 0
-0.828125 -0.90625 0
-0.84375 -0.890625 0
-0.828125 -0.890625 0
-0.828125 -0.90625 0
-0.8125 -0.90625 0
-0.828125 -0.890625 0
-0.8125 -0.890625 0
-0.84375 -0.890625 0
-0.828125 -0.890625 0
-0.84375 -0.875 0
-0.828125 -0.875 0
-0.828125 -0.890625 0
-0.8125 -0.890625 0
-0.828125 -0.875 0
-0.8125 -0.875 0
-0.8125 -0.9375 0
-0.796875 -0.9375 0
-0.8125 -0.921875 0
-0.796875 -0.921875 0
-0.796875 -0.9375 0
-0.78125 -0.9375 0
-0.796875 -0.921875 0
-0.78125 -0.921875 0
-0.8125 -0.921875 0
-0.796875 -0.921875 0
-0.8125 -0.90625 0
-0.796875 -0.90625 0
-0.796875 -0.921875 0
-0.78125 -0.921875 0
-0.796875 -0.90625 0
-0.78125 -0.90625 0
-0.78125 -0.9375 0
-0.765625 -0.9375 0
-0.78125 -0.921875 0
-0.765625 -0.921875 0
-0.765625 -0.9375 0
-0.75 -0.9375 0
-0.765625 -0.921875 0
-0.75 -0.921875 0
-0.78125 -0.921875 0
-0.765625 -0.921875 0
-0.78125 -0.90625 0
-0.765625 -0.90625 0
-0.765625 -0.921875 0
-0.75 -0.921875 0
-0.765625 -0.90625 0
-0.75 -0.90625 0
-0.8125 -0.90625 0
-0.796875 -0.90625 0
-0.8125 -0.890625 0
-0.796875 -0.890625 0
-0.796875 -0.90625 0
[...]
  <PointData Scalars="scalars">
    <DataArray type="Float32" Name="U" format="ascii">
0 0 0 0.000137723 0 0 0.000137723 0.000269741 0 0.000137723 0 0.000216198 0.000137723 0.000269741 0.000216198 0.000428823 0 0 0.000269741 0.000390624 0 0 0.000390624 0.000495509 0.000269741 0.000390624 0.000428823 0.000631282 0.000390624 0.000495509 0.000631282 0.00081166 0 0.000216198 0 0.000152542 0.000216198 0.000428823 0.000152542 0.000309954 0 0.000152542 0 0.000144956 0.000152542 0.000309954 0.000144956 0.000296344 0.000428823 0.000631282 0.000309954 0.000477957 0.000631282 0.00081166 0.000477957 0.000663266 0.000309954 0.000477957 0.000296344 0.000463852 0.000477957 0.000663266 0.000463852 0.000663517 0 0 0.000495509 0.000579885 0 0 0.000579885 0.000637832 0.000495509 0.000579885 0.00081166 0.000952471 0.000579885 0.000637832 0.000952471 0.00103438 0 0 0.000637832 0.00065804 0 0 0.00065804 0.000619571 0.000637832 0.00065804 0.00103438 0.00104496 0.00065804 0.000619571 0.00104496 0.000989895 0.00081166 0.000952471 0.000663266 0.000872372 0.000952471 0.00103438 0.000872372 0.00110886 0.000663266 0.000872372 0.000663517 0.000919735 0.000872372 0.00110886 0.000919735 0.00126403 0.00103438 0.00104496 0.00110886 0.00137058 0.00104496 0.000989895 0.00137058 0.00164973 0.00110886 0.00137058 0.00126403 0.00172777 0.00137058 0.00164973 0.00172777 0.00232824 0 0.000144956 0 0.000294569 0.000144956 0.000296344 0.000294569 0.000597937 0 0.000294569 0 0.000441264 0.000294569 0.000597937 0.000441264 0.000900148 0.000296344 0.000463852 0.000597937 0.000918163 0.000463852 0.000663517 0.000918163 0.00126246 0.000597937 0.000918163 0.000900148 0.00139383 0.000918163 0.00126246 0.00139383 0.0019386 0 0.000441264 0 0.000540044 0.000441264 0.000900148 0.000540044 0.00110772 0 0.000540044 0 0.000584205 0.000540044 0.00110772 0.000584205 0.00119439 0.000900148 0.00139383 0.00110772 0.00172999 0.00139383 0.0019386 0.00172999 0.00243232 0.00110772 0.00172999 0.00119439 0.00185721 0.00172999 0.00243232 0.00185721 0.00259933 0.000663517 0.000919735 0.00126246 0.00163895 0.000919735 0.00126403 0.00163895 0.00206192 0.00126246 0.00163895 0.0019386 0.00254916 0.00163895 0.00206192 0.00254916 0.00323762 0.00126403 0.00172777 0.00206192 0.00256126 0.00172777 0.00232824 0.00256126 0.00319216 0.00206192 0.00256126 0.00323762 0.00401334 0.00256126 0.00319216 0.00401334 0.00488747 0.0019386 0.00254916 0.00243232 0.00323767 0.00254916 0.00323762 0.00323767 0.00416506 0.00243232 0.00323767 0.00259933 0.00344463 0.00323767 0.00416506 0.00344463 0.0044101 0.00323762 0.00401334 0.00416506 0.00522593 0.00401334 0.00488747 0.00522593 0.00641669 0.00416506 0.00522593 0.0044101 0.00550378 0.00522593 0.00641669 0.00550378 0.00672839 0 0 0.000619571 0.000493863 0 0 0.000493863 0.000261661 0.000619571 0.000493863 0.000989895 0.000898942 0.000493863 0.000261661 0.000898942 0.000817205 0 0 0.000261661 -5.39667e-05 0 0 -5.39667e-05 -0.000357503 0.000261661 -5.39667e-05 0.000817205 0.000781929 -5.39667e-05 -0.000357503 0.000781929 0.000804234 0.000989895 0.000898942 0.00164973 0.00193895 0.000898942 0.000817205 0.00193895 0.00224187 0.00164973 0.00193895 0.00232824 0.0030545 0.00193895 0.00224187 0.0030545 0.00386789 0.000817205 0.000781929 0.00224187 0.00257919 0.000781929 0.000804234 0.00257919 0.00298077 0.00224187 0.00257919 0.00386789 0.00473109 0.00257919 0.00298077 0.00473109 0.00565577 0 0 -0.000357503 -0.000490862 0 0 -0.000490862 -0.000306755 -0.000357503 -0.000490862 0.000804234 0.000885844 -0.000490862 -0.000306755 0.000885844 0.00107697 0 0 -0.000306755 0.000230139 0 0 0.000230139 0.00101038 -0.000306755 0.000230139 0.00107697 0.00152764 0.000230139 0.00101038 0.00152764 0.00245765 0.000804234 0.000885844 0.00298077 0.00347054 0.000885844 0.00107697 0.00347054 0.00407339 0.00298077 0.00347054 0.00565577 0.00672373 0.00347054 0.00407339 0.00672373 0.00803428 0.00107697 0.00152764 0.00407339 0.00486417 0.00152764 0.00245765 0.00486417 0.00601777 0.00407339 0.00486417 0.00803428 0.00960172 0.00486417 0.00601777 0.00960172 0.0113193 0.00232824 0.0030545 0.00319216 0.00403423 0.0030545 0.00386789 0.00403423 0.00516698 0.00319216 0.00403423 0.00488747 0.00588586 0.00403423 0.00516698 0.00588586 0.00706629 0.00386789 0.00473109 0.00516698 0.00662299 0.00473109 0.00565577 0.00662299 0.0083503 0.00516698 0.00662299 0.00706629 0.00851856 0.00662299 0.0083503 0.00851856 0.0103208 0.00488747 0.00588586 0.00641669 0.00770986 0.00588586 0.00706629 0.00770986 0.00905784 0.00641669 0.00770986 0.00672839 0.00808766 0.00770986 0.00905784 0.00808766 0.00958263 0.00706629 0.00851856 0.00905784 0.0104297 0.00851856 0.0103208 0.0104297 0.0118765 0.00905784 0.0104297 0.00958263 0.0111893 0.0104297 0.0118765 0.0111893 0.0128422 0.00565577 0.00672373 0.0083503 0.0102304 0.00672373 0.00803428 0.0102304 0.0121571 0.0083503 0.0102304 0.0103208 0.0124612 0.0102304 0.0121571 0.0124612 0.0148009 0.00803428 0.00960172 0.0121571 0.014103 0.00960172 0.0113193 0.014103 0.0160876 0.0121571 0.014103 0.0148009 0.0171572 0.014103 0.0160876 0.0171572 0.0194597 0.0103208 0.0124612 0.0118765 0.0135621 0.0124612 0.0148009 0.0135621 0.0156771 0.0118765 0.0135621 0.0128422 0.014478 0.0135621 0.0156771 0.014478 0.0161394 0.0148009 0.0171572 0.0156771 0.0182513 0.0171572 0.0194597 0.0182513 0.0210541 0.0156771 0.0182513 0.0161394 0.018011 0.0182513 0.0210541 0.018011 0.0202486 0 0.000584205 0 0.000577987 0.000584205 0.00119439 0.000577987 0.00116669 0 0.000577987 0 0.000491784 0.000577987 0.00116669 0.000491784 0.0010019 0.00119439 0.00185721 0.00116669 0.00177785 0.00185721 0.00259933 0.00177785 0.00242694 0.00116669 0.00177785 0.0010019 0.00154428 0.00177785 0.00242694 0.00154428 0.00212479 0 0.000491784 0 0.000282533 0.000491784 0.0010019 0.000282533 0.000583546 0 0.000282533 0 9.63146e-05 0.000282533 0.000583546 9.63146e-05 0.000183663 0.0010019 0.00154428 0.000583546 0.000923485 0.00154428 0.00212479 0.000923485 0.00132317 0.000583546 0.000923485 0.000183663 0.000255353 0.000923485 0.00132317 0.000255353 0.000312166 0.00259933 0.00344463 0.00242694 0.00313739 0.00344463 0.0044101 0.00313739 0.00394316 0.00242694 0.00313739 0.00212479 0.00274092 0.00313739 0.00394316 0.00274092 0.0033888 0.0044101 0.00550378 0.00394316 0.00488414 0.00550378 0.00672839 0.00488414 0.0059927 0.00394316 0.00488414 0.0033888 0.0040782 0.00488414 0.0059927 0.0040782 0.00484566 0.00212479 0.00274092 0.00132317 0.00179553 0.00274092 0.0033888 0.00179553 0.00233122 0.00132317 0.00179553 0.000312166 0.000370237 0.00179553 0.00233122 0.000370237 0.000464796 0.0033888 0.0040782 0.00233122 0.00288765 0.0040782 0.00484566 0.00288765 0.0034001 0.00233122 0.00288765 0.000464796 0.000636956 0.00288765 0.0034001 0.000636956 0.000896186 0 9.63146e-05 0 -0.000110522 9.63146e-05 0.000183663 -0.000110522 -0.000224384 0 -0.000110522 0 -0.000409683 -0.000110522 -0.000224384 -0.000409683 -0.0008209 0.000183663 0.000255353 -0.000224384 -0.000350362 0.000255353 0.000312166 -0.000350362 -0.000507083 -0.000224384 -0.000350362 -0.0008209 -0.00123249 -0.000350362 -0.000507083 -0.00123249 -0.00164196 0 -0.000409683 0 -0.000672492 -0.000409683 -0.0008209 -0.000672492 -0.00136627 0 -0.000672492 0 -0.000974897 -0.000672492 -0.00136627 -0.000974897 -0.00196704 -0.0008209 -0.00123249 -0.00136627 -0.00210086 -0.00123249 -0.00164196 -0.00210086 -0.00288946 -0.00136627 -0.00210086 -0.00196704 -0.00299837 -0.00210086 -0.00288946 -0.00299837 -0.00409892 0.000312166 0.000370237 -0.000507083 -0.000722282 0.000370237 0.000464796 -0.000722282 -0.00101994 -0.000507083 -0.000722282 -0.00164196 -0.00205463 -0.000722282 -0.00101994 -0.00205463 -0.00250013 0.000464796 0.000636956 -0.00101994 -0.00139313 0.000636956 0.000896186 -0.00139313 -0.00177907 -0.00101994 -0.00139313 -0.00250013 -0.00304422 -0.00139313 -0.00177907 -0.00304422 -0.00377185 -0.00164196 -0.00205463 -0.00288946 -0.00373214 -0.00205463 -0.00250013 -0.00373214 -0.00461453 -0.00288946 -0.00373214 -0.00409892 -0.00530426 -0.00373214 -0.00461453 -0.00530426 -0.00664185 -0.00250013 -0.00304422 -0.00461453 -0.00552418 -0.00304422 -0.00377185 -0.00552418 -0.00648866 -0.00461453 -0.00552418 -0.00664185 -0.00810899 -0.00552418 -0.00648866 -0.00810899 -0.00966242 0.00672839 0.00808766 0.0059927 0.00727986 0.00808766 0.00958263 0.00727986 0.00873612 0.0059927 0.00727986 0.00484566 0.0057465 0.00727986 0.00873612 0.0057465 0.00681682 0.00958263 0.0111893 0.00873612 0.0103452 0.0111893 0.0128422 0.0103452 0.0120763 0.00873612 0.0103452 0.00681682 0.00803513 0.0103452 0.0120763 0.00803513 0.00933691 0.00484566 0.0057465 0.0034001 0.00382662 0.0057465 0.00681682 0.00382662 0.00420223 0.0034001 0.00382662 0.000896186 0.00117858 0.00382662 0.00420223 0.00117858 0.00135529 0.00681682 0.00803513 0.00420223 0.00463991 0.00803513 0.00933691 0.00463991 0.00524399 0.00420223 0.00463991 0.00135529 0.00133036 0.00463991 0.00524399 0.00133036 0.00116233 0.0128422 0.014478 0.0120763 0.0138337 0.014478 0.0161394 0.0138337 0.0154335 0.0120763 0.0138337 0.00933691 0.010677 0.0138337 0.0154335 0.010677 0.0120356 0.0161394 0.018011 0.0154335 0.0167322 0.018011 0.0202486 0.0167322 0.0178512 0.0154335 0.0167322 0.0120356 0.0133146 0.0167322 0.0178512 0.0133146 0.0143047 0.00933691 0.010677 0.00524399 0.00601624 0.010677 0.0120356 0.00601624 0.00688524 0.00524399 0.00601624 0.00116233 0.00104533 0.00601624 0.00688524 0.00104533 0.00110325 0.0120356 0.0133146 0.00688524 0.00781065 0.0133146 0.0143047 0.00781065 0.00872643 0.00688524 0.00781065 0.00110325 0.00124522 0.00781065 0.00872643 0.00124522 0.00131537 0.000896186 0.00117858 -0.00177907 -0.00207631 0.00117858 0.00135529 -0.00207631 -0.00223465 -0.00177907 -0.00207631 -0.00377185 -0.00472465 -0.00207631 -0.00223465 -0.00472465 -0.00582617 0.00135529 0.00133036 -0.00223465 -0.00236895 0.00133036 0.00116233 -0.00236895 -0.00274845 -0.00223465 -0.00236895 -0.00582617 -0.00689659 -0.00236895 -0.00274845 -0.00689659 -0.00783615 -0.00377185 -0.00472465 -0.00648866 -0.00761056 -0.00472465 -0.00582617 -0.00761056 -0.00904189 -0.00648866 -0.00761056 -0.00966242 -0.0112477 -0.00761056 -0.00904189 -0.0112477 -0.0128738 -0.00582617 -0.00689659 -0.00904189 -0.0108558 -0.00689659 -0.00783615 -0.0108558 -0.0128934 -0.00904189 -0.0108558 -0.0128738 -0.0146818 -0.0108558 -0.0128934 -0.0146818 -0.0168983 0.00116233 0.00104533 -0.00274845 -0.00357086 0.00104533 0.00110325 -0.00357086 -0.00472299 -0.00274845 -0.00357086 -0.00783615 -0.00884368 -0.00357086 -0.00472299 -0.00884368 -0.0103252 0.00110325 0.00124522 -0.00472299 -0.00589099 0.00124522 0.00131537 -0.00589099 -0.00694752 -0.00472299 -0.00589099 -0.0103252 -0.0124204 -0.00589099 -0.00694752 -0.0124204 -0.0147495 -0.00783615 -0.00884368 -0.0128934 -0.0148225 -0.00884368 -0.0103252 -0.0148225 -0.0165322 -0.0128934 -0.0148225 -0.0168983 -0.0195983 -0.0148225 -0.0165322 -0.0195983 -0.0224794 -0.0103252 -0.0124204 -0.0165322 -0.0184474 -0.0124204 -0.0147495 -0.0184474 -0.0211135 -0.0165322 -0.0184474 -0.0224794 -0.025121 -0.0184474 -0.0211135 -0.025121 -0.0277027 0 0 0.00101038 0.00188623 0 0 0.00188623 0.00284973 0.00101038 0.00188623 0.00245765 0.00402965 0.00188623 0.00284973 0.00402965 0.00622375 0 0 0.00284973 0.00408637 0 0 0.00408637 0.00577927 0.00284973 0.00408637 0.00622375 0.00884485 0.00408637 0.00577927 0.00884485 0.0116667 0.00245765 0.00402965 0.00601777 0.00776687 0.00402965 0.00622375 0.00776687 0.0102362 0.00601777 0.00776687 0.0113193 0.0130842 0.00776687 0.0102362 0.0130842 0.0149911 0.00622375 0.00884485 0.0102362 0.0132913 0.00884485 0.0116667 0.0132913 0.0166061 0.0102362 0.0132913 0.0149911 0.0173464 0.0132913 0.0166061 0.0173464 0.0204008 0 0 0.00577927 0.00781339 0 0 0.00781339 0.00972069 0.00577927 0.00781339 0.0116667 0.0145517 0.00781339 0.00972069 0.0145517 0.017405 0 0 0.00972069 0.0110167 0 0 0.0110167 0.0116273 0.00972069 0.0110167 0.017405 0.0200336 0.0110167 0.0116273 0.0200336 0.0221215 0.0116667 0.0145517 0.0166061 0.0199412 0.0145517 0.017405 0.0199412 0.0233145 0.0166061 0.0199412 0.0204008 0.024054 0.0199412 0.0233145 0.024054 0.0278811 0.017405 0.0200336 0.0233145 0.0267802 0.0200336 0.0221215 0.0267802 0.030012 0.0233145 0.0267802 0.0278811 0.0314494 0.0267802 0.030012 0.0314494 0.0345036 0.0113193 0.0130842 0.0160876 0.0180876 0.0130842 0.0149911 0.0180876 0.0200466 0.0160876 0.0180876 0.0194597 0.0217801 0.0180876 0.0200466 0.0217801 0.0241427 0.0149911 0.0173464 0.0200466 0.0220338 0.0173464 0.0204008 0.0220338 0.0243206 0.0200466 0.0220338 0.0241427 0.0263462 0.0220338 0.0243206 0.0263462 0.0281242 0.0194597 0.0217801 0.0210541 0.0237433 0.0217801 0.0241427 0.0237433 0.0261195 0.0210541 0.0237433 0.0202486 0.0227247 0.0237433 0.0261195 0.0227247 0.0250479 0.0241427 0.0263462 0.0261195 0.0281459 0.0263462 0.0281242 0.0281459 0.029723 0.0261195 0.0281459 0.0250479 0.0269276 0.0281459 0.029723 0.0269276 0.0283928 0.0204008 0.024054 0.0243206 0.027144 0.024054 0.0278811 0.027144 0.0303503 0.0243206 0.027144 0.0281242 0.0295277 0.027144 0.0303503 0.0295277 0.0309826 0.0278811 0.0314494 0.0303503 0.0334143 0.0314494 0.0345036 0.0334143 0.0359079 0.0303503 0.0334143 0.0309826 0.0328203 0.0334143 0.0359079 0.0328203 0.0348517 0.0281242 0.0295277 0.029723 0.0306614 0.0295277 0.0309826 0.0306614 0.0310351 0.029723 0.0306614 0.0283928 0.0294905 0.0306614 0.0310351 0.0294905 0.0299469 0.0309826 0.0328203 0.0310351 0.0313578 0.0328203 0.0348517 0.0313578 0.0320757 0.0310351 0.0313578 0.0299469 0.0294695 0.0313578 0.0320757 0.0294695 0.0283017 0 0 0.0116273 0.0119138 0 0 0.0119138 0.0121957 0.0116273 0.0119138 0.0221215 0.0233775 0.0119138 0.0121957 0.0233775 0.023669 0 0 0.0121957 0.0122751 0 0 0.0122751 0.0115475 0.0121957 0.0122751 0.023669 0.0229596 0.0122751 0.0115475 0.0229596 0.0211583 0.0221215 0.0233775 0.030012 0.0322364 0.0233775 0.023669 0.0322364 0.0327363 0.030012 0.0322364 0.0345036 0.0367924 0.0322364 0.0327363 0.0367924 0.0378585 0.023669 0.0229596 0.0327363 0.0314164 0.0229596 0.0211583 0.0314164 0.0287422 0.0327363 0.0314164 0.0378585 0.0372014 0.0314164 0.0287422 0.0372014 0.0346385 0 0 0.0115475 0.00964612 0 0 0.00964612 0.0069113 0.0115475 0.00964612 0.0211583 0.0181409 0.00964612 0.0069113 0.0181409 0.0139591 0 0 0.0069113 0.00410336 0 0 0.00410336 0.00162034 0.0069113 0.00410336 0.0139591 0.00893274 0.00410336 0.00162034 0.00893274 0.00340688 0.0211583 0.0181409 0.0287422 0.0250725 0.0181409 0.0139591 0.0250725 0.0201744 0.0287422 0.0250725 0.0346385 0.0303107 0.0250725 0.0201744 0.0303107 0.0242528 0.0139591 0.00893274 0.0201744 0.0135234 0.00893274 0.00340688 0.0135234 0.0050339 0.0201744 0.0135234 0.0242528 0.0161592 0.0135234 0.0050339 0.0161592 0.00580689 0.0345036 0.0367924 0.0359079 0.0378089 0.0367924 0.0378585 0.0378089 0.039144 0.0359079 0.0378089 0.0348517 0.0365556 0.0378089 0.039144 0.0365556 0.0375436 0.0378585 0.0372014 0.039144 0.0394014 0.0372014 0.0346385 0.0394014 0.0375896 0.039144 0.0394014 0.0375436 0.0375371 0.0394014 0.0375896 0.0375371 0.0359356 0.0348517 0.0365556 0.0320757 0.0329291 0.0365556 0.0375436 0.0329291 0.0331323 0.0320757 0.0329291 0.0283017 0.027038 0.0329291 0.0331323 0.027038 0.0258283 0.0375436 0.0375371 0.0331323 0.0321745 0.0375371 0.0359356 0.0321745 0.0300468 0.0331323 0.0321745 0.0258283 0.0241955 0.0321745 0.0300468 0.0241955 0.0217238 0.0346385 0.0303107 0.0375896 0.0330069 0.0303107 0.0242528 0.0330069 0.0257701 0.0375896 0.0330069 0.0359356 0.031847 0.0330069 0.0257701 0.031847 0.0248044 0.0242528 0.0161592 0.0257701 0.0164415 0.0161592 0.00580689 0.0164415 0.00531258 0.0257701 0.0164415 0.0248044 0.0151978 0.0164415 0.00531258 0.0151978 0.0036787 0.0359356 0.031847 0.0300468 0.0265701 0.031847 0.0248044 0.0265701 0.0209581 0.0300468 0.0265701 0.0217238 0.0183606 0.0265701 0.0209581 0.0183606 0.0137148 0.0248044 0.0151978 0.0209581 0.0124086 0.0151978 0.0036787 0.0124086 0.000854057 0.0209581 0.0124086 0.0137148 0.00660083 0.0124086 0.000854057 0.00660083 -0.00410841 0.0202486 0.0227247 0.0178512 0.0191727 0.0227247 0.0250479 0.0191727 0.0209402 0.0178512 0.0191727 0.0143047 0.0149315 0.0191727 0.0209402 0.0149315 0.0155056 0.0250479 0.0269276 0.0209402 0.0229011 0.0269276 0.0283928 0.0229011 0.0245344 0.0209402 0.0229011 0.0155056 0.0164386 0.0229011 0.0245344 0.0164386 0.017616 0.0143047 0.0149315 0.00872643 0.00934946 0.0149315 0.0155056 0.00934946 0.00931467 0.00872643 0.00934946 0.00131537 0.00126099 0.00934946 0.00931467 0.00126099 0.000929441 0.0155056 0.0164386 0.00931467 0.00870549 0.0164386 0.017616 0.00870549 0.0081332 0.00931467 0.00870549 0.000929441 -7.47494e-05 0.00870549 0.0081332 -7.47494e-05 -0.00183778 0.0283928 0.0294905 0.0245344 0.025553 0.0294905 0.0299469 0.025553 0.0258731 0.0245344 0.025553 0.017616 0.0183846 0.025553 0.0258731 0.0183846 0.0182834 0.0299469 0.0294695 0.0258731 0.0251918 0.0294695 0.0283017 0.0251918 0.023165 0.0258731 0.0251918 0.0182834 0.0173454 0.0251918 0.023165 0.0173454 0.0155234 0.017616 0.0183846 0.0081332 0.00794446 0.0183846 0.0182834 0.00794446 0.00769967 0.0081332 0.00794446 -0.00183778 -0.00366544 0.00794446 0.00769967 -0.00366544 -0.00486657 0.0182834 0.0173454 0.00769967 0.0068196 0.0173454 0.0155234 0.0068196 0.00521361 0.00769967 0.0068196 -0.00486657 -0.00579071 0.0068196 0.00521361 -0.00579071 -0.0073361 0.00131537 0.00126099 -0.00694752 -0.00801807 0.00126099 0.000929441 -0.00801807 -0.00914447 -0.00694752 -0.00801807 -0.0147495 -0.0168926 -0.00801807 -0.00914447 -0.0168926 -0.0188975 0.000929441 -7.47494e-05 -0.00914447 -0.0103345 -7.47494e-05 -0.00183778 -0.0103345 -0.0119958 -0.00914447 -0.0103345 -0.0188975 -0.0209587 -0.0103345 -0.0119958 -0.0209587 -0.0231102 -0.0147495 -0.0168926 -0.0211135 -0.0244172 -0.0168926 -0.0188975 -0.0244172 -0.0277557 -0.0211135 -0.0244172 -0.0277027 -0.0310446 -0.0244172 -0.0277557 -0.0310446 -0.0354438 -0.0188975 -0.0209587 -0.0277557 -0.0309787 -0.0209587 -0.0231102 -0.0309787 -0.0343492 -0.0277557 -0.0309787 -0.0354438 -0.0401685 -0.0309787 -0.0343492 -0.0401685 -0.0446792 -0.00183778 -0.00366544 -0.0119958 -0.0145552 -0.00366544 -0.00486657 -0.0145552 -0.0175385 -0.0119958 -0.0145552 -0.0231102 -0.0257471 -0.0145552 -0.0175385 -0.0257471 -0.0295219 -0.00486657 -0.00579071 -0.0175385 -0.0200454 -0.00579071 -0.0073361 -0.0200454 -0.0221895 -0.0175385 -0.0200454 -0.0295219 -0.0340742 -0.0200454 -0.0221895 -0.0340742 -0.0381302 -0.0231102 -0.0257471 -0.0343492 -0.0378639 -0.0257471 -0.0295219 -0.0378639 -0.0417195 -0.0343492 -0.0378639 -0.0446792 -0.0491614 -0.0378639 -0.0417195 -0.0491614 -0.0536105 -0.0295219 -0.0340742 -0.0417195 -0.046603 -0.0340742 -0.0381302 -0.046603 -0.0522476 -0.0417195 -0.046603 -0.0536105 -0.0581232 -0.046603 -0.0522476 -0.0581232 -0.0635418 0.0283017 0.027038 0.023165 0.0201336 0.027038 0.0258283 0.0201336 0.0170702 0.023165 0.0201336 0.0155234 0.0124885 0.0201336 0.0170702 0.0124885 0.00838686 0.0258283 0.0241955 0.0170702 0.014474 0.0241955 0.0217238 0.014474 0.0117915 0.0170702 0.014474 0.00838686 0.00409388 0.014474 0.0117915 0.00409388 0.000132131 0.0155234 0.0124885 0.00521361 0.00275243 0.0124885 0.00838686 0.00275243 -0.00114387 0.00521361 0.00275243 -0.0073361 -0.00986475 0.00275243 -0.00114387 -0.00986475 -0.0134887 0.00838686 0.00409388 -0.00114387 -0.00659578 0.00409388 0.000132131 -0.00659578 -0.0126196 -0.00114387 -0.00659578 -0.0134887 -0.0187001 -0.00659578 -0.0126196 -0.0187001 -0.0255029 0.0217238 0.0183606 0.0117915 0.00819929 0.0183606 0.0137148 0.00819929 0.0033414 0.0117915 0.00819929 0.000132131 -0.00408296 0.00819929 0.0033414 -0.00408296 -0.0093752 0.0137148 0.00660083 0.0033414 -0.0031702 0.00660083 -0.00410841 -0.0031702 -0.0123356 0.0033414 -0.0031702 -0.0093752 -0.0158706 -0.0031702 -0.0123356 -0.0158706 -0.0236406 0.000132131 -0.00408296 -0.0126196 -0.0182568 -0.00408296 -0.0093752 -0.0182568 -0.0237386 -0.0126196 -0.0182568 -0.0255029 -0.0326064 -0.0182568 -0.0237386 -0.0326064 -0.0387465 -0.0093752 -0.0158706 -0.0237386 -0.0297784 -0.0158706 -0.0236406 -0.0297784 -0.0365468 -0.0237386 -0.