<?xml version="1.0" ?> 
<!-- 
# vtk DataFile Version 3.0
#This file was generated by the deal.II library on 21:43:01 at 2021/4/29
-->
<VTKFile type="UnstructuredGrid" version="0.1" byte_order="LittleEndian">
<UnstructuredGrid>
<Piece NumberOfPoints="65536" NumberOfCells="16384" >
  <Points>
    <DataArray type="Float32" NumberOfComponents="3" format="ascii">
-1 -1 0
-0.984375 -1 0
-1 -0.984375 0
-0.984375 -0.984375 0
-0.984375 -1 0
-0.96875 -1 0
-0.984375 -0.984375 0
-0.96875 -0.984375 0
-1 -0.984375 0
-0.984375 -0.984375 0
-1 -0.96875 0
-0.984375 -0.96875 0
-0.984375 -0.984375 0
-0.96875 -0.984375 0
-0.984375 -0.96875 0
-0.96875 -0.96875 0
-0.96875 -1 0
-0.953125 -1 0
-0.96875 -0.984375 0
-0.953125 -0.984375 0
-0.953125 -1 0
-0.9375 -1 0
-0.953125 -0.984375 0
-0.9375 -0.984375 0
-0.96875 -0.984375 0
-0.953125 -0.984375 0
-0.96875 -0.96875 0
-0.953125 -0.96875 0
-0.953125 -0.984375 0
-0.9375 -0.984375 0
-0.953125 -0.96875 0
-0.9375 -0.96875 0
-1 -0.96875 0
-0.984375 -0.96875 0
-1 -0.953125 0
-0.984375 -0.953125 0
-0.984375 -0.96875 0
-0.96875 -0.96875 0
-0.984375 -0.953125 0
-0.96875 -0.953125 0
-1 -0.953125 0
-0.984375 -0.953125 0
-1 -0.9375 0
-0.984375 -0.9375 0
-0.984375 -0.953125 0
-0.96875 -0.953125 0
-0.984375 -0.9375 0
-0.96875 -0.9375 0
-0.96875 -0.96875 0
-0.953125 -0.96875 0
-0.96875 -0.953125 0
-0.953125 -0.953125 0
-0.953125 -0.96875 0
-0.9375 -0.96875 0
-0.953125 -0.953125 0
-0.9375 -0.953125 0
-0.96875 -0.953125 0
-0.953125 -0.953125 0
-0.96875 -0.9375 0
-0.953125 -0.9375 0
-0.953125 -0.953125 0
-0.9375 -0.953125 0
-0.953125 -0.9375 0
-0.9375 -0.9375 0
-0.9375 -1 0
-0.921875 -1 0
-0.9375 -0.984375 0
-0.921875 -0.984375 0
-0.921875 -1 0
-0.90625 -1 0
-0.921875 -0.984375 0
-0.90625 -0.984375 0
-0.9375 -0.984375 0
-0.921875 -0.984375 0
-0.9375 -0.96875 0
-0.921875 -0.96875 0
-0.921875 -0.984375 0
-0.90625 -0.984375 0
-0.921875 -0.96875 0
-0.90625 -0.96875 0
-0.90625 -1 0
-0.890625 -1 0
-0.90625 -0.984375 0
-0.890625 -0.984375 0
-0.890625 -1 0
-0.875 -1 0
-0.890625 -0.984375 0
-0.875 -0.984375 0
-0.90625 -0.984375 0
-0.890625 -0.984375 0
-0.90625 -0.96875 0
-0.890625 -0.96875 0
-0.890625 -0.984375 0
-0.875 -0.984375 0
-0.890625 -0.96875 0
-0.875 -0.96875 0
-0.9375 -0.96875 0
-0.921875 -0.96875 0
-0.9375 -0.953125 0
-0.921875 -0.953125 0
-0.921875 -0.96875 0
-0.90625 -0.96875 0
-0.921875 -0.953125 0
-0.90625 -0.953125 0
-0.9375 -0.953125 0
-0.921875 -0.953125 0
-0.9375 -0.9375 0
-0.921875 -0.9375 0
-0.921875 -0.953125 0
-0.90625 -0.953125 0
-0.921875 -0.9375 0
-0.90625 -0.9375 0
-0.90625 -0.96875 0
-0.890625 -0.96875 0
-0.90625 -0.953125 0
-0.890625 -0.953125 0
-0.890625 -0.96875 0
-0.875 -0.96875 0
-0.890625 -0.953125 0
-0.875 -0.953125 0
-0.90625 -0.953125 0
-0.890625 -0.953125 0
-0.90625 -0.9375 0
-0.890625 -0.9375 0
-0.890625 -0.953125 0
-0.875 -0.953125 0
-0.890625 -0.9375 0
-0.875 -0.9375 0
-1 -0.9375 0
-0.984375 -0.9375 0
-1 -0.921875 0
-0.984375 -0.921875 0
-0.984375 -0.9375 0
-0.96875 -0.9375 0
-0.984375 -0.921875 0
-0.96875 -0.921875 0
-1 -0.921875 0
-0.984375 -0.921875 0
-1 -0.90625 0
-0.984375 -0.90625 0
-0.984375 -0.921875 0
-0.96875 -0.921875 0
-0.984375 -0.90625 0
-0.96875 -0.90625 0
-0.96875 -0.9375 0
-0.953125 -0.9375 0
-0.96875 -0.921875 0
-0.953125 -0.921875 0
-0.953125 -0.9375 0
-0.9375 -0.9375 0
-0.953125 -0.921875 0
-0.9375 -0.921875 0
-0.96875 -0.921875 0
-0.953125 -0.921875 0
-0.96875 -0.90625 0
-0.953125 -0.90625 0
-0.953125 -0.921875 0
-0.9375 -0.921875 0
-0.953125 -0.90625 0
-0.9375 -0.90625 0
-1 -0.90625 0
-0.984375 -0.90625 0
-1 -0.890625 0
-0.984375 -0.890625 0
-0.984375 -0.90625 0
-0.96875 -0.90625 0
-0.984375 -0.890625 0
-0.96875 -0.890625 0
-1 -0.890625 0
-0.984375 -0.890625 0
-1 -0.875 0
-0.984375 -0.875 0
-0.984375 -0.890625 0
-0.96875 -0.890625 0
-0.984375 -0.875 0
-0.96875 -0.875 0
-0.96875 -0.90625 0
-0.953125 -0.90625 0
-0.96875 -0.890625 0
-0.953125 -0.890625 0
-0.953125 -0.90625 0
-0.9375 -0.90625 0
-0.953125 -0.890625 0
-0.9375 -0.890625 0
-0.96875 -0.890625 0
-0.953125 -0.890625 0
-0.96875 -0.875 0
-0.953125 -0.875 0
-0.953125 -0.890625 0
-0.9375 -0.890625 0
-0.953125 -0.875 0
-0.9375 -0.875 0
-0.9375 -0.9375 0
-0.921875 -0.9375 0
-0.9375 -0.921875 0
-0.921875 -0.921875 0
-0.921875 -0.9375 0
-0.90625 -0.9375 0
-0.921875 -0.921875 0
-0.90625 -0.921875 0
-0.9375 -0.921875 0
-0.921875 -0.921875 0
-0.9375 -0.90625 0
-0.921875 -0.90625 0
-0.921875 -0.921875 0
-0.90625 -0.921875 0
-0.921875 -0.90625 0
-0.90625 -0.90625 0
-0.90625 -0.9375 0
-0.890625 -0.9375 0
-0.90625 -0.921875 0
-0.890625 -0.921875 0
-0.890625 -0.9375 0
-0.875 -0.9375 0
-0.890625 -0.921875 0
-0.875 -0.921875 0
-0.90625 -0.921875 0
-0.890625 -0.921875 0
-0.90625 -0.90625 0
-0.890625 -0.90625 0
-0.890625 -0.921875 0
-0.875 -0.921875 0
-0.890625 -0.90625 0
-0.875 -0.90625 0
-0.9375 -0.90625 0
-0.921875 -0.90625 0
-0.9375 -0.890625 0
-0.921875 -0.890625 0
-0.921875 -0.90625 0
-0.90625 -0.90625 0
-0.921875 -0.890625 0
-0.90625 -0.890625 0
-0.9375 -0.890625 0
-0.921875 -0.890625 0
-0.9375 -0.875 0
-0.921875 -0.875 0
-0.921875 -0.890625 0
-0.90625 -0.890625 0
-0.921875 -0.875 0
-0.90625 -0.875 0
-0.90625 -0.90625 0
-0.890625 -0.90625 0
-0.90625 -0.890625 0
-0.890625 -0.890625 0
-0.890625 -0.90625 0
-0.875 -0.90625 0
-0.890625 -0.890625 0
-0.875 -0.890625 0
-0.90625 -0.890625 0
-0.890625 -0.890625 0
-0.90625 -0.875 0
-0.890625 -0.875 0
-0.890625 -0.890625 0
-0.875 -0.890625 0
-0.890625 -0.875 0
-0.875 -0.875 0
-0.875 -1 0
-0.859375 -1 0
-0.875 -0.984375 0
-0.859375 -0.984375 0
-0.859375 -1 0
-0.84375 -1 0
-0.859375 -0.984375 0
-0.84375 -0.984375 0
-0.875 -0.984375 0
-0.859375 -0.984375 0
-0.875 -0.96875 0
-0.859375 -0.96875 0
-0.859375 -0.984375 0
-0.84375 -0.984375 0
-0.859375 -0.96875 0
-0.84375 -0.96875 0
-0.84375 -1 0
-0.828125 -1 0
-0.84375 -0.984375 0
-0.828125 -0.984375 0
-0.828125 -1 0
-0.8125 -1 0
-0.828125 -0.984375 0
-0.8125 -0.984375 0
-0.84375 -0.984375 0
-0.828125 -0.984375 0
-0.84375 -0.96875 0
-0.828125 -0.96875 0
-0.828125 -0.984375 0
-0.8125 -0.984375 0
-0.828125 -0.96875 0
-0.8125 -0.96875 0
-0.875 -0.96875 0
-0.859375 -0.96875 0
-0.875 -0.953125 0
-0.859375 -0.953125 0
-0.859375 -0.96875 0
-0.84375 -0.96875 0
-0.859375 -0.953125 0
-0.84375 -0.953125 0
-0.875 -0.953125 0
-0.859375 -0.953125 0
-0.875 -0.9375 0
-0.859375 -0.9375 0
-0.859375 -0.953125 0
-0.84375 -0.953125 0
-0.859375 -0.9375 0
-0.84375 -0.9375 0
-0.84375 -0.96875 0
-0.828125 -0.96875 0
-0.84375 -0.953125 0
-0.828125 -0.953125 0
-0.828125 -0.96875 0
-0.8125 -0.96875 0
-0.828125 -0.953125 0
-0.8125 -0.953125 0
-0.84375 -0.953125 0
-0.828125 -0.953125 0
-0.84375 -0.9375 0
-0.828125 -0.9375 0
-0.828125 -0.953125 0
-0.8125 -0.953125 0
-0.828125 -0.9375 0
-0.8125 -0.9375 0
-0.8125 -1 0
-0.796875 -1 0
-0.8125 -0.984375 0
-0.796875 -0.984375 0
-0.796875 -1 0
-0.78125 -1 0
-0.796875 -0.984375 0
-0.78125 -0.984375 0
-0.8125 -0.984375 0
-0.796875 -0.984375 0
-0.8125 -0.96875 0
-0.796875 -0.96875 0
-0.796875 -0.984375 0
-0.78125 -0.984375 0
-0.796875 -0.96875 0
-0.78125 -0.96875 0
-0.78125 -1 0
-0.765625 -1 0
-0.78125 -0.984375 0
-0.765625 -0.984375 0
-0.765625 -1 0
-0.75 -1 0
-0.765625 -0.984375 0
-0.75 -0.984375 0
-0.78125 -0.984375 0
-0.765625 -0.984375 0
-0.78125 -0.96875 0
-0.765625 -0.96875 0
-0.765625 -0.984375 0
-0.75 -0.984375 0
-0.765625 -0.96875 0
-0.75 -0.96875 0
-0.8125 -0.96875 0
-0.796875 -0.96875 0
-0.8125 -0.953125 0
-0.796875 -0.953125 0
-0.796875 -0.96875 0
-0.78125 -0.96875 0
-0.796875 -0.953125 0
-0.78125 -0.953125 0
-0.8125 -0.953125 0
-0.796875 -0.953125 0
-0.8125 -0.9375 0
-0.796875 -0.9375 0
-0.796875 -0.953125 0
-0.78125 -0.953125 0
-0.796875 -0.9375 0
-0.78125 -0.9375 0
-0.78125 -0.96875 0
-0.765625 -0.96875 0
-0.78125 -0.953125 0
-0.765625 -0.953125 0
-0.765625 -0.96875 0
-0.75 -0.96875 0
-0.765625 -0.953125 0
-0.75 -0.953125 0
-0.78125 -0.953125 0
-0.765625 -0.953125 0
-0.78125 -0.9375 0
-0.765625 -0.9375 0
-0.765625 -0.953125 0
-0.75 -0.953125 0
-0.765625 -0.9375 0
-0.75 -0.9375 0
-0.875 -0.9375 0
-0.859375 -0.9375 0
-0.875 -0.921875 0
-0.859375 -0.921875 0
-0.859375 -0.9375 0
-0.84375 -0.9375 0
-0.859375 -0.921875 0
-0.84375 -0.921875 0
-0.875 -0.921875 0
-0.859375 -0.921875 0
-0.875 -0.90625 0
-0.859375 -0.90625 0
-0.859375 -0.921875 0
-0.84375 -0.921875 0
-0.859375 -0.90625 0
-0.84375 -0.90625 0
-0.84375 -0.9375 0
-0.828125 -0.9375 0
-0.84375 -0.921875 0
-0.828125 -0.921875 0
-0.828125 -0.9375 0
-0.8125 -0.9375 0
-0.828125 -0.921875 0
-0.8125 -0.921875 0
-0.84375 -0.921875 0
-0.828125 -0.921875 0
-0.84375 -0.90625 0
-0.828125 -0.90625 0
-0.828125 -0.921875 0
-0.8125 -0.921875 0
-0.828125 -0.90625 0
-0.8125 -0.90625 0
-0.875 -0.90625 0
-0.859375 -0.90625 0
-0.875 -0.890625 0
-0.859375 -0.890625 0
-0.859375 -0.90625 0
-0.84375 -0.90625 0
-0.859375 -0.890625 0
-0.84375 -0.890625 0
-0.875 -0.890625 0
-0.859375 -0.890625 0
-0.875 -0.875 0
-0.859375 -0.875 0
-0.859375 -0.890625 0
-0.84375 -0.890625 0
-0.859375 -0.875 0
-0.84375 -0.875 0
-0.84375 -0.90625 0
-0.828125 -0.90625 0
-0.84375 -0.890625 0
-0.828125 -0.890625 0
-0.828125 -0.90625 0
-0.8125 -0.90625 0
-0.828125 -0.890625 0
-0.8125 -0.890625 0
-0.84375 -0.890625 0
-0.828125 -0.890625 0
-0.84375 -0.875 0
-0.828125 -0.875 0
-0.828125 -0.890625 0
-0.8125 -0.890625 0
-0.828125 -0.875 0
-0.8125 -0.875 0
-0.8125 -0.9375 0
-0.796875 -0.9375 0
-0.8125 -0.921875 0
-0.796875 -0.921875 0
-0.796875 -0.9375 0
-0.78125 -0.9375 0
-0.796875 -0.921875 0
-0.78125 -0.921875 0
-0.8125 -0.921875 0
-0.796875 -0.921875 0
-0.8125 -0.90625 0
-0.796875 -0.90625 0
-0.796875 -0.921875 0
-0.78125 -0.921875 0
-0.796875 -0.90625 0
-0.78125 -0.90625 0
-0.78125 -0.9375 0
-0.765625 -0.9375 0
-0.78125 -0.921875 0
-0.765625 -0.921875 0
-0.765625 -0.9375 0
-0.75 -0.9375 0
-0.765625 -0.921875 0
-0.75 -0.921875 0
-0.78125 -0.921875 0
-0.765625 -0.921875 0
-0.78125 -0.90625 0
-0.765625 -0.90625 0
-0.765625 -0.921875 0
-0.75 -0.921875 0
-0.765625 -0.90625 0
-0.75 -0.90625 0
-0.8125 -0.90625 0
-0.796875 -0.90625 0
-0.8125 -0.890625 0
-0.796875 -0.890625 0
-0.796875 -0.90625 0
[...]
  <PointData Scalars="scalars">
    <DataArray type="Float32" Name="U" format="ascii">
0 0 0 0.000354098 0 0 0.000354098 0.000703592 0 0.000354098 0 0.000747271 0.000354098 0.000703592 0.000747271 0.00149292 0 0 0.000703592 0.00104637 0 0 0.00104637 0.00138539 0.000703592 0.00104637 0.00149292 0.0022325 0.00104637 0.00138539 0.0022325 0.00295604 0 0.000747271 0 0.00102331 0.000747271 0.00149292 0.00102331 0.00204143 0 0.00102331 0 0.0012957 0.00102331 0.00204143 0.0012957 0.00257842 0.00149292 0.0022325 0.00204143 0.00304974 0.0022325 0.00295604 0.00304974 0.00404418 0.00204143 0.00304974 0.00257842 0.00383661 0.00304974 0.00404418 0.00383661 0.00506225 0 0 0.00138539 0.00173054 0 0 0.00173054 0.00209716 0.00138539 0.00173054 0.00295604 0.00364684 0.00173054 0.00209716 0.00364684 0.00428414 0 0 0.00209716 0.00249817 0 0 0.00249817 0.002929 0.00209716 0.00249817 0.00428414 0.00485228 0.00249817 0.002929 0.00485228 0.00535465 0.00295604 0.00364684 0.00404418 0.00501953 0.00364684 0.00428414 0.00501953 0.00596592 0.00404418 0.00501953 0.00506225 0.00625372 0.00501953 0.00596592 0.00625372 0.0074177 0.00428414 0.00485228 0.00596592 0.00686448 0.00485228 0.00535465 0.00686448 0.00768714 0.00596592 0.00686448 0.0074177 0.00856657 0.00686448 0.00768714 0.00856657 0.0097076 0 0.0012957 0 0.00158931 0.0012957 0.00257842 0.00158931 0.00317163 0 0.00158931 0 0.00181263 0.00158931 0.00317163 0.00181263 0.0036194 0.00257842 0.00383661 0.00317163 0.00473818 0.00383661 0.00506225 0.00473818 0.00627663 0.00317163 0.00473818 0.0036194 0.00541519 0.00473818 0.00627663 0.00541519 0.00719544 0 0.00181263 0 0.00198993 0.00181263 0.0036194 0.00198993 0.00396675 0 0.00198993 0 0.00207899 0.00198993 0.00396675 0.00207899 0.00414785 0.0036194 0.00541519 0.00396675 0.00591709 0.00541519 0.00719544 0.00591709 0.00782803 0.00396675 0.00591709 0.00414785 0.00619568 0.00591709 0.00782803 0.00619568 0.00821015 0.00506225 0.00625372 0.00627663 0.00777045 0.00625372 0.0074177 0.00777045 0.00920114 0.00627663 0.00777045 0.00719544 0.00895367 0.00777045 0.00920114 0.00895367 0.0106761 0.0074177 0.00856657 0.00920114 0.0105555 0.00856657 0.0097076 0.0105555 0.0118359 0.00920114 0.0105555 0.0106761 0.0123346 0.0105555 0.0118359 0.0123346 0.0138845 0.00719544 0.00895367 0.00782803 0.00968924 0.00895367 0.0106761 0.00968924 0.0114958 0.00782803 0.00968924 0.00821015 0.0101777 0.00968924 0.0114958 0.0101777 0.0120863 0.0106761 0.0123346 0.0114958 0.0132487 0.0123346 0.0138845 0.0132487 0.0149504 0.0114958 0.0132487 0.0120863 0.0139312 0.0132487 0.0149504 0.0139312 0.015721 0 0 0.002929 0.00335221 0 0 0.00335221 0.00369718 0.002929 0.00335221 0.00535465 0.00582274 0.00335221 0.00369718 0.00582274 0.0063041 0 0 0.00369718 0.0038902 0 0 0.0038902 0.00390809 0.00369718 0.0038902 0.0063041 0.00682195 0.0038902 0.00390809 0.00682195 0.0073301 0.00535465 0.00582274 0.00768714 0.00840729 0.00582274 0.0063041 0.00840729 0.0090235 0.00768714 0.00840729 0.0097076 0.0108253 0.00840729 0.0090235 0.0108253 0.0118689 0.0063041 0.00682195 0.0090235 0.00958264 0.00682195 0.0073301 0.00958264 0.0101703 0.0090235 0.00958264 0.0118689 0.0127655 0.00958264 0.0101703 0.0127655 0.0134675 0 0 0.00390809 0.00381448 0 0 0.00381448 0.00372978 0.00390809 0.00381448 0.0073301 0.00771721 0.00381448 0.00372978 0.00771721 0.00789319 0 0 0.00372978 0.00374069 0 0 0.00374069 0.00383582 0.00372978 0.00374069 0.00789319 0.00789567 0.00374069 0.00383582 0.00789567 0.00787725 0.0073301 0.00771721 0.0101703 0.010844 0.00771721 0.00789319 0.010844 0.0115395 0.0101703 0.010844 0.0134675 0.0140057 0.010844 0.0115395 0.0140057 0.01448 0.00789319 0.00789567 0.0115395 0.0120509 0.00789567 0.00787725 0.0120509 0.0121632 0.0115395 0.0120509 0.01448 0.0149561 0.0120509 0.0121632 0.0149561 0.0153577 0.0097076 0.0108253 0.0118359 0.0130641 0.0108253 0.0118689 0.0130641 0.0142644 0.0118359 0.0130641 0.0138845 0.0152761 0.0130641 0.0142644 0.0152761 0.016485 0.0118689 0.0127655 0.0142644 0.0154224 0.0127655 0.0134675 0.0154224 0.0164459 0.0142644 0.0154224 0.016485 0.0175466 0.0154224 0.0164459 0.0175466 0.0185569 0.0138845 0.0152761 0.0149504 0.0165932 0.0152761 0.016485 0.0165932 0.01815 0.0149504 0.0165932 0.015721 0.0174752 0.0165932 0.01815 0.0174752 0.0192037 0.016485 0.0175466 0.01815 0.0195799 0.0175466 0.0185569 0.0195799 0.0208564 0.01815 0.0195799 0.0192037 0.0208724 0.0195799 0.0208564 0.0208724 0.0223812 0.0134675 0.0140057 0.0164459 0.0171926 0.0140057 0.01448 0.0171926 0.0175971 0.0164459 0.0171926 0.0185569 0.0196023 0.0171926 0.0175971 0.0196023 0.0206469 0.01448 0.0149561 0.0175971 0.0178105 0.0149561 0.0153577 0.0178105 0.0181526 0.0175971 0.0178105 0.0206469 0.0214974 0.0178105 0.0181526 0.0214974 0.0219542 0.0185569 0.0196023 0.0208564 0.0219985 0.0196023 0.0206469 0.0219985 0.0230536 0.0208564 0.0219985 0.0223812 0.0235937 0.0219985 0.0230536 0.0235937 0.0244301 0.0206469 0.0214974 0.0230536 0.0239985 0.0214974 0.0219542 0.0239985 0.0246398 0.0230536 0.0239985 0.0244301 0.0249677 0.0239985 0.0246398 0.0249677 0.0254135 0 0.00207899 0 0.00211912 0.00207899 0.00414785 0.00211912 0.00423188 0 0.00211912 0 0.0021226 0.00211912 0.00423188 0.0021226 0.00423521 0.00414785 0.00619568 0.00423188 0.00633302 0.00619568 0.00821015 0.00633302 0.0084185 0.00423188 0.00633302 0.00423521 0.00632689 0.00633302 0.0084185 0.00632689 0.0083859 0 0.0021226 0 0.00200104 0.0021226 0.00423521 0.00200104 0.00399497 0 0.00200104 0 0.00182828 0.00200104 0.00399497 0.00182828 0.00365401 0.00423521 0.00632689 0.00399497 0.00597337 0.00632689 0.0083859 0.00597337 0.00792503 0.00399497 0.00597337 0.00365401 0.00547694 0.00597337 0.00792503 0.00547694 0.00730047 0.00821015 0.0101777 0.0084185 0.0104831 0.0101777 0.0120863 0.0104831 0.0125147 0.0084185 0.0104831 0.0083859 0.0104013 0.0104831 0.0125147 0.0104013 0.012365 0.0120863 0.0139312 0.0125147 0.0144883 0.0139312 0.015721 0.0144883 0.0163644 0.0125147 0.0144883 0.012365 0.0142695 0.0144883 0.0163644 0.0142695 0.0161006 0.0083859 0.0104013 0.00792503 0.00983568 0.0104013 0.012365 0.00983568 0.0116916 0.00792503 0.00983568 0.00730047 0.00912974 0.00983568 0.0116916 0.00912974 0.0109642 0.012365 0.0142695 0.0116916 0.0134898 0.0142695 0.0161006 0.0134898 0.0152483 0.0116916 0.0134898 0.0109642 0.0127874 0.0134898 0.0152483 0.0127874 0.014567 0 0.00182828 0 0.00171624 0.00182828 0.00365401 0.00171624 0.00343093 0 0.00171624 0 0.00156303 0.00171624 0.00343093 0.00156303 0.00313348 0.00365401 0.00547694 0.00343093 0.00514119 0.00547694 0.00730047 0.00514119 0.00684343 0.00343093 0.00514119 0.00313348 0.0047178 0.00514119 0.00684343 0.0047178 0.00631859 0 0.00156303 0 0.00136319 0.00156303 0.00313348 0.00136319 0.00272906 0 0.00136319 0 0.00118431 0.00136319 0.00272906 0.00118431 0.00237391 0.00313348 0.0047178 0.00272906 0.00410259 0.0047178 0.00631859 0.00410259 0.00549425 0.00272906 0.00410259 0.00237391 0.0035708 0.00410259 0.00549425 0.0035708 0.00477121 0.00730047 0.00912974 0.00684343 0.00853749 0.00912974 0.0109642 0.00853749 0.0102335 0.00684343 0.00853749 0.00631859 0.00792954 0.00853749 0.0102335 0.00792954 0.00953323 0.0109642 0.0127874 0.0102335 0.0119533 0.0127874 0.014567 0.0119533 0.0137128 0.0102335 0.0119533 0.00953323 0.0111118 0.0119533 0.0137128 0.0111118 0.0126748 0.00631859 0.00792954 0.00549425 0.0069221 0.00792954 0.00953323 0.0069221 0.00840567 0.00549425 0.0069221 0.00477121 0.00596758 0.0069221 0.00840567 0.00596758 0.00716135 0.00953323 0.0111118 0.00840567 0.00994514 0.0111118 0.0126748 0.00994514 0.0114966 0.00840567 0.00994514 0.00716135 0.00838458 0.00994514 0.0114966 0.00838458 0.00970549 0.015721 0.0174752 0.0163644 0.0181014 0.0174752 0.0192037 0.0181014 0.0196771 0.0163644 0.0181014 0.0161006 0.0178279 0.0181014 0.0196771 0.0178279 0.0194121 0.0192037 0.0208724 0.0196771 0.0211017 0.0208724 0.0223812 0.0211017 0.0224044 0.0196771 0.0211017 0.0194121 0.0208375 0.0211017 0.0224044 0.0208375 0.0221412 0.0161006 0.0178279 0.0152483 0.0170006 0.0178279 0.0194121 0.0170006 0.0187597 0.0152483 0.0170006 0.014567 0.0162796 0.0170006 0.0187597 0.0162796 0.0179501 0.0194121 0.0208375 0.0187597 0.020476 0.0208375 0.0221412 0.020476 0.0220525 0.0187597 0.020476 0.0179501 0.0196488 0.020476 0.0220525 0.0196488 0.0214045 0.0223812 0.0235937 0.0224044 0.0235967 0.0235937 0.0244301 0.0235967 0.0246436 0.0224044 0.0235967 0.0221412 0.0233917 0.0235967 0.0246436 0.0233917 0.0246152 0.0244301 0.0249677 0.0246436 0.0254763 0.0249677 0.0254135 0.0254763 0.0260633 0.0246436 0.0254763 0.0246152 0.0257499 0.0254763 0.0260633 0.0257499 0.026684 0.0221412 0.0233917 0.0220525 0.023438 0.0233917 0.0246152 0.023438 0.0246939 0.0220525 0.023438 0.0214045 0.0231189 0.023438 0.0246939 0.0231189 0.0246415 0.0246152 0.0257499 0.0246939 0.025918 0.0257499 0.026684 0.025918 0.0271074 0.0246939 0.025918 0.0246415 0.0259636 0.025918 0.0271074 0.0259636 0.0272164 0.014567 0.0162796 0.0137128 0.0154877 0.0162796 0.0179501 0.0154877 0.017204 0.0137128 0.0154877 0.0126748 0.0142791 0.0154877 0.017204 0.0142791 0.0159847 0.0179501 0.0196488 0.017204 0.0188065 0.0196488 0.0214045 0.0188065 0.0203627 0.017204 0.0188065 0.0159847 0.0177475 0.0188065 0.0203627 0.0177475 0.0193876 0.0126748 0.0142791 0.0114966 0.0129868 0.0142791 0.0159847 0.0129868 0.0143987 0.0114966 0.0129868 0.00970549 0.0111778 0.0129868 0.0143987 0.0111778 0.0127543 0.0159847 0.0177475 0.0143987 0.0158541 0.0177475 0.0193876 0.0158541 0.0175154 0.0143987 0.0158541 0.0127543 0.0142979 0.0158541 0.0175154 0.0142979 0.0157943 0.0214045 0.0231189 0.0203627 0.022024 0.0231189 0.0246415 0.022024 0.0237897 0.0203627 0.022024 0.0193876 0.0207871 0.022024 0.0237897 0.0207871 0.0221279 0.0246415 0.0259636 0.0237897 0.0253944 0.0259636 0.0272164 0.0253944 0.026632 0.0237897 0.0253944 0.0221279 0.0237145 0.0253944 0.026632 0.0237145 0.0254893 0.0193876 0.0207871 0.0175154 0.0193277 0.0207871 0.0221279 0.0193277 0.0210109 0.0175154 0.0193277 0.0157943 0.0175058 0.0193277 0.0210109 0.0175058 0.0196579 0.0221279 0.0237145 0.0210109 0.0225304 0.0237145 0.0254893 0.0225304 0.024326 0.0210109 0.0225304 0.0196579 0.0219482 0.0225304 0.024326 0.0219482 0.023888 0 0 0.00383582 0.00394444 0 0 0.00394444 0.00401573 0.00383582 0.00394444 0.00787725 0.00792582 0.00394444 0.00401573 0.00792582 0.00790967 0 0 0.00401573 0.00399273 0 0 0.00399273 0.00371724 0.00401573 0.00399273 0.00790967 0.00760138 0.00399273 0.00371724 0.00760138 0.00699071 0.00787725 0.00792582 0.0121632 0.0118582 0.00792582 0.00790967 0.0118582 0.0113704 0.0121632 0.0118582 0.0153577 0.0155225 0.0118582 0.0113704 0.0155225 0.0154201 0.00790967 0.00760138 0.0113704 0.0109916 0.00760138 0.00699071 0.0109916 0.010823 0.0113704 0.0109916 0.0154201 0.0152426 0.0109916 0.010823 0.0152426 0.0151412 0 0 0.00371724 0.00303452 0 0 0.00303452 0.00213928 0.00371724 0.00303452 0.00699071 0.00634564 0.00303452 0.00213928 0.00634564 0.00586887 0 0 0.00213928 0.0016457 0 0 0.0016457 0.00197034 0.00213928 0.0016457 0.00586887 0.00545045 0.0016457 0.00197034 0.00545045 0.00493106 0.00699071 0.00634564 0.010823 0.0107337 0.00634564 0.00586887 0.0107337 0.0104711 0.010823 0.0107337 0.0151412 0.0149258 0.0107337 0.0104711 0.0149258 0.0142469 0.00586887 0.00545045 0.0104711 0.00974444 0.00545045 0.00493106 0.00974444 0.00837866 0.0104711 0.00974444 0.0142469 0.0130425 0.00974444 0.00837866 0.0130425 0.0114903 0.0153577 0.0155225 0.0181526 0.0187915 0.0155225 0.0154201 0.0187915 0.0194447 0.0181526 0.0187915 0.0219542 0.0220414 0.0187915 0.0194447 0.0220414 0.0219914 0.0154201 0.0152426 0.0194447 0.019559 0.0152426 0.0151412 0.019559 0.0189032 0.0194447 0.019559 0.0219914 0.0218885 0.019559 0.0189032 0.0218885 0.0214487 0.0219542 0.0220414 0.0246398 0.0247051 0.0220414 0.0219914 0.0247051 0.0241729 0.0246398 0.0247051 0.0254135 0.02587 0.0247051 0.0241729 0.02587 0.0261042 0.0219914 0.0218885 0.0241729 0.0234507 0.0218885 0.0214487 0.0234507 0.0229482 0.0241729 0.0234507 0.0261042 0.0257451 0.0234507 0.0229482 0.0257451 0.0248601 0.0151412 0.0149258 0.0189032 0.0178166 0.0149258 0.0142469 0.0178166 0.016709 0.0189032 0.0178166 0.0214487 0.0203877 0.0178166 0.016709 0.0203877 0.0188945 0.0142469 0.0130425 0.016709 0.0155401 0.0130425 0.0114903 0.0155401 0.0140379 0.016709 0.0155401 0.0188945 0.0173864 0.0155401 0.0140379 0.0173864 0.0159219 0.0214487 0.0203877 0.0229482 0.0224527 0.0203877 0.0188945 0.0224527 0.0213591 0.0229482 0.0224527 0.0248601 0.0240276 0.0224527 0.0213591 0.0240276 0.0234782 0.0188945 0.0173864 0.0213591 0.0196247 0.0173864 0.0159219 0.0196247 0.017866 0.0213591 0.0196247 0.0234782 0.0225795 0.0196247 0.017866 0.0225795 0.0207338 0 0 0.00197034 0.00266102 0 0 0.00266102 0.00275075 0.00197034 0.00266102 0.00493106 0.00441039 0.00266102 0.00275075 0.00441039 0.00397561 0 0 0.00275075 0.00189449 0 0 0.00189449 0.000720679 0.00275075 0.00189449 0.00397561 0.00329066 0.00189449 0.000720679 0.00329066 0.00193001 0.00493106 0.00441039 0.00837866 0.00660252 0.00441039 0.00397561 0.00660252 0.00499438 0.00837866 0.00660252 0.0114903 0.00956338 0.00660252 0.00499438 0.00956338 0.00716294 0.00397561 0.00329066 0.00499438 0.00381601 0.00329066 0.00193001 0.00381601 0.0026032 0.00499438 0.00381601 0.00716294 0.00471872 0.00381601 0.0026032 0.00471872 0.00289719 0 0 0.000720679 -0.000119743 0 0 -0.000119743 -0.000687877 0.000720679 -0.000119743 0.00193001 0.00010731 -0.000119743 -0.000687877 0.00010731 -0.00141434 0 0 -0.000687877 -0.00119633 0 0 -0.00119633 -0.00140907 -0.000687877 -0.00119633 -0.00141434 -0.00224207 -0.00119633 -0.00140907 -0.00224207 -0.00280795 0.00193001 0.00010731 0.0026032 0.000838238 0.00010731 -0.00141434 0.000838238 -0.0012586 0.0026032 0.000838238 0.00289719 0.00147048 0.000838238 -0.0012586 0.00147048 -0.000720228 -0.00141434 -0.00224207 -0.0012586 -0.00321762 -0.00224207 -0.00280795 -0.00321762 -0.00528393 -0.0012586 -0.00321762 -0.000720228 -0.00430245 -0.00321762 -0.00528393 -0.00430245 -0.00861138 0.0114903 0.00956338 0.0140379 0.0121328 0.00956338 0.00716294 0.0121328 0.00985677 0.0140379 0.0121328 0.0159219 0.0142874 0.0121328 0.00985677 0.0142874 0.0123885 0.00716294 0.00471872 0.00985677 0.00719712 0.00471872 0.00289719 0.00719712 0.00435927 0.00985677 0.00719712 0.0123885 0.00998434 0.00719712 0.00435927 0.00998434 0.00653245 0.0159219 0.0142874 0.017866 0.0162978 0.0142874 0.0123885 0.0162978 0.0143572 0.017866 0.0162978 0.0207338 0.0182252 0.0162978 0.0143572 0.0182252 0.0155375 0.0123885 0.00998434 0.0143572 0.0115765 0.00998434 0.00653245 0.0115765 0.00797288 0.0143572 0.0115765 0.0155375 0.012646 0.0115765 0.00797288 0.012646 0.00954801 0.00289719 0.00147048 0.00435927 0.00161305 0.00147048 -0.000720228 0.00161305 -0.00142257 0.00435927 0.00161305 0.00653245 0.0020733 0.00161305 -0.00142257 0.0020733 -0.00239163 -0.000720228 -0.00430245 -0.00142257 -0.00553412 -0.00430245 -0.00861138 -0.00553412 -0.0105932 -0.00142257 -0.00553412 -0.00239163 -0.00626469 -0.00553412 -0.0105932 -0.00626469 -0.0102316 0.00653245 0.0020733 0.00797288 0.00365216 0.0020733 -0.00239163 0.00365216 -0.000976012 0.00797288 0.00365216 0.00954801 0.00640953 0.00365216 -0.000976012 0.00640953 0.00294342 -0.00239163 -0.00626469 -0.000976012 -0.00503091 -0.00626469 -0.0102316 -0.00503091 -0.00831405 -0.000976012 -0.00503091 0.00294342 -0.0010216 -0.00503091 -0.00831405 -0.0010216 -0.00466209 0.0254135 0.02587 0.0260633 0.0264969 0.02587 0.0261042 0.0264969 0.0269362 0.0260633 0.0264969 0.026684 0.0273431 0.0264969 0.0269362 0.0273431 0.0277836 0.0261042 0.0257451 0.0269362 0.0273257 0.0257451 0.0248601 0.0273257 0.027276 0.0269362 0.0273257 0.0277836 0.0282097 0.0273257 0.027276 0.0282097 0.0286939 0.026684 0.0273431 0.0271074 0.0281484 0.0273431 0.0277836 0.0281484 0.0289039 0.0271074 0.0281484 0.0272164 0.0284082 0.0281484 0.0289039 0.0284082 0.0293404 0.0277836 0.0282097 0.0289039 0.0292755 0.0282097 0.0286939 0.0292755 0.0293304 0.0289039 0.0292755 0.0293404 0.0298828 0.0292755 0.0293304 0.0298828 0.0301149 0.0248601 0.0240276 0.027276 0.0265602 0.0240276 0.0234782 0.0265602 0.0255807 0.027276 0.0265602 0.0286939 0.0287807 0.0265602 0.0255807 0.0287807 0.0278706 0.0234782 0.0225795 0.0255807 0.0246884 0.0225795 0.0207338 0.0246884 0.0232975 0.0255807 0.0246884 0.0278706 0.0262646 0.0246884 0.0232975 0.0262646 0.0249113 0.0286939 0.0287807 0.0293304 0.0293313 0.0287807 0.0278706 0.0293313 0.0292705 0.0293304 0.0293313 0.0301149 0.0302491 0.0293313 0.0292705 0.0302491 0.0306509 0.0278706 0.0262646 0.0292705 0.0286902 0.0262646 0.0249113 0.0286902 0.0276818 0.0292705 0.0286902 0.0306509 0.0314067 0.0286902 0.0276818 0.0314067 0.0317957 0.0272164 0.0284082 0.026632 0.0276974 0.0284082 0.0293404 0.0276974 0.0288993 0.026632 0.0276974 0.0254893 0.0271018 0.0276974 0.0288993 0.0271018 0.0285988 0.0293404 0.0298828 0.0288993 0.0301848 0.0298828 0.0301149 0.0301848 0.0313498 0.0288993 0.0301848 0.0285988 0.0304176 0.0301848 0.0313498 0.0304176 0.0324998 0.0254893 0.0271018 0.024326 0.0266166 0.0271018 0.0285988 0.0266166 0.0288647 0.024326 0.0266166 0.023888 0.025704 0.0266166 0.0288647 0.025704 0.0280152 0.0285988 0.0304176 0.0288647 0.0306846 0.0304176 0.0324998 0.0306846 0.0326133 0.0288647 0.0306846 0.0280152 0.0305163 0.0306846 0.0326133 0.0305163 0.0324728 0.0301149 0.0302491 0.0313498 0.0323815 0.0302491 0.0306509 0.0323815 0.0332794 0.0313498 0.0323815 0.0324998 0.0343342 0.0323815 0.0332794 0.0343342 0.0358114 0.0306509 0.0314067 0.0332794 0.0341702 0.0314067 0.0317957 0.0341702 0.0352688 0.0332794 0.0341702 0.0358114 0.0370489 0.0341702 0.0352688 0.0370489 0.038199 0.0324998 0.0343342 0.0326133 0.0349499 0.0343342 0.0358114 0.0349499 0.0371412 0.0326133 0.0349499 0.0324728 0.0343849 0.0349499 0.0371412 0.0343849 0.036854 0.0358114 0.0370489 0.0371412 0.0389738 0.0370489 0.038199 0.0389738 0.0405246 0.0371412 0.0389738 0.036854 0.0391569 0.0389738 0.0405246 0.0391569 0.0408821 0.0207338 0.0182252 0.0232975 0.0207436 0.0182252 0.0155375 0.0207436 0.0176204 0.0232975 0.0207436 0.0249113 0.0237993 0.0207436 0.0176204 0.0237993 0.0220428 0.0155375 0.012646 0.0176204 0.0149534 0.012646 0.00954801 0.0149534 0.0127238 0.0176204 0.0149534 0.0220428 0.0196826 0.0149534 0.0127238 0.0196826 0.0175513 0.0249113 0.0237993 0.0276818 0.0271321 0.0237993 0.0220428 0.0271321 0.0269847 0.0276818 0.0271321 0.0317957 0.0314199 0.0271321 0.0269847 0.0314199 0.0312255 0.0220428 0.0196826 0.0269847 0.0259939 0.0196826 0.0175513 0.0259939 0.0240254 0.0269847 0.0259939 0.0312255 0.0315912 0.0259939 0.0240254 0.0315912 0.0312119 0.00954801 0.00640953 0.0127238 0.0104126 0.00640953 0.00294342 0.0104126 0.00787719 0.0127238 0.0104126 0.0175513 0.0157069 0.0104126 0.00787719 0.0157069 0.013762 0.00294342 -0.0010216 0.00787719 0.00491692 -0.0010216 -0.00466209 0.00491692 0.00147801 0.00787719 0.00491692 0.013762 0.0116529 0.00491692 0.00147801 0.0116529 0.00892186 0.0175513 0.0157069 0.0240254 0.0221977 0.0157069 0.013762 0.0221977 0.0206533 0.0240254 0.0221977 0.0312119 0.0295352 0.0221977 0.0206533 0.0295352 0.0274711 0.013762 0.0116529 0.0206533 0.0186405 0.0116529 0.00892186 0.0186405 0.0158291 0.0206533 0.0186405 0.0274711 0.0251747 0.0186405 0.0158291 0.0251747 0.0221934 0.0317957 0.0314199 0.0352688 0.0360507 0.0314199 0.0312255 0.0360507 0.036004 0.0352688 0.0360507 0.038199 0.0395596 0.0360507 0.036004 0.0395596 0.040539 0.0312255 0.0315912 0.036004 0.0360406 0.0315912 0.0312119 0.0360406 0.0365578 0.036004 0.0360406 0.040539 0.0402762 0.0360406 0.0365578 0.0402762 0.0397387 0.038199 0.0395596 0.0405246 0.0417202 0.0395596 0.040539 0.0417202 0.0428323 0.0405246 0.0417202 0.0408821 0.0422735 0.0417202 0.0428323 0.0422735 0.0434496 0.040539 0.0402762 0.0428323 0.0434654 0.0402762 0.0397387 0.0434654 0.0429486 0.0428323 0.0434654 0.0434496 0.044939 0.0434654 0.0429486 0.044939 0.046392 0.0312119 0.0295352 0.0365578 0.0359663 0.0295352 0.0274711 0.0359663 0.0336654 0.0365578 0.0359663 0.0397387 0.0397993 0.0359663 0.0336654 0.0397993 0.0391504 0.0274711 0.0251747 0.0336654 0.0310815 