<?xml version="1.0" ?> 
<!-- 
# vtk DataFile Version 3.0
#This file was generated by the deal.II library on 23:53:51 at 2021/5/3
-->
<VTKFile type="UnstructuredGrid" version="0.1" byte_order="LittleEndian">
<UnstructuredGrid>
<FieldData>
<DataArray type="Float32" Name="CYCLE" NumberOfTuples="1" format="ascii">69</DataArray>
<DataArray type="Float32" Name="TIME" NumberOfTuples="1" format="ascii">0.138</DataArray>
</FieldData>
<Piece NumberOfPoints="2868" NumberOfCells="717" >
  <Points>
    <DataArray type="Float32" NumberOfComponents="3" format="ascii">
-1 -1 0
-0.75 -1 0
-1 -0.75 0
-0.75 -0.75 0
-0.75 -1 0
-0.5 -1 0
-0.75 -0.75 0
-0.5 -0.75 0
-1 -0.75 0
-0.75 -0.75 0
-1 -0.5 0
-0.75 -0.5 0
-0.75 -0.75 0
-0.5 -0.75 0
-0.75 -0.5 0
-0.5 -0.5 0
-0.5 -1 0
-0.25 -1 0
-0.5 -0.75 0
-0.25 -0.75 0
-0.25 -1 0
0 -1 0
-0.25 -0.75 0
0 -0.75 0
-0.5 -0.75 0
-0.25 -0.75 0
-0.5 -0.5 0
-0.25 -0.5 0
-0.25 -0.75 0
0 -0.75 0
-0.25 -0.5 0
0 -0.5 0
-1 -0.5 0
-0.75 -0.5 0
-1 -0.25 0
-0.75 -0.25 0
-0.75 -0.5 0
-0.5 -0.5 0
-0.75 -0.25 0
-0.5 -0.25 0
-1 -0.25 0
-0.75 -0.25 0
-1 0 0
-0.75 0 0
-0.75 -0.25 0
-0.5 -0.25 0
-0.75 0 0
-0.5 0 0
-0.5 -0.5 0
-0.25 -0.5 0
-0.5 -0.25 0
-0.25 -0.25 0
-0.25 -0.5 0
0 -0.5 0
-0.25 -0.25 0
0 -0.25 0
-0.5 -0.25 0
-0.25 -0.25 0
-0.5 0 0
-0.25 0 0
0 -1 0
0.25 -1 0
0 -0.75 0
0.25 -0.75 0
0.25 -1 0
0.5 -1 0
0.25 -0.75 0
0.5 -0.75 0
0 -0.75 0
0.25 -0.75 0
0 -0.5 0
0.25 -0.5 0
0.75 -1 0
1 -1 0
0.75 -0.75 0
1 -0.75 0
0 -0.5 0
0.25 -0.5 0
0 -0.25 0
0.25 -0.25 0
0 -0.25 0
0.25 -0.25 0
0 0 0
0.25 0 0
-1 0 0
-0.75 0 0
-1 0.25 0
-0.75 0.25 0
0.5 -0.5 0
0.625 -0.5 0
0.5 -0.375 0
0.625 -0.375 0
0.625 -0.5 0
0.75 -0.5 0
0.625 -0.375 0
0.75 -0.375 0
0.5 -0.375 0
0.625 -0.375 0
0.5 -0.25 0
0.625 -0.25 0
0.625 -0.375 0
0.75 -0.375 0
0.625 -0.25 0
0.75 -0.25 0
0.75 -0.5 0
0.875 -0.5 0
0.75 -0.375 0
0.875 -0.375 0
0.875 -0.5 0
1 -0.5 0
0.875 -0.375 0
1 -0.375 0
0.75 -0.375 0
0.875 -0.375 0
0.75 -0.25 0
0.875 -0.25 0
0.875 -0.375 0
1 -0.375 0
0.875 -0.25 0
1 -0.25 0
0.5 -0.25 0
0.625 -0.25 0
0.5 -0.125 0
0.625 -0.125 0
0.625 -0.25 0
0.75 -0.25 0
0.625 -0.125 0
0.75 -0.125 0
0.5 -0.125 0
0.625 -0.125 0
0.5 0 0
0.625 0 0
0.625 -0.125 0
0.75 -0.125 0
0.625 0 0
0.75 0 0
0.75 -0.25 0
0.875 -0.25 0
0.75 -0.125 0
0.875 -0.125 0
0.875 -0.25 0
1 -0.25 0
0.875 -0.125 0
1 -0.125 0
0.75 -0.125 0
0.875 -0.125 0
0.75 0 0
0.875 0 0
0.875 -0.125 0
1 -0.125 0
0.875 0 0
1 0 0
0.75 -0.75 0
0.875 -0.75 0
0.75 -0.625 0
0.875 -0.625 0
0.875 -0.75 0
1 -0.75 0
0.875 -0.625 0
1 -0.625 0
0.75 -0.625 0
0.875 -0.625 0
0.75 -0.5 0
0.875 -0.5 0
0.875 -0.625 0
1 -0.625 0
0.875 -0.5 0
1 -0.5 0
0.25 -0.25 0
0.375 -0.25 0
0.25 -0.125 0
0.375 -0.125 0
0.375 -0.25 0
0.5 -0.25 0
0.375 -0.125 0
0.5 -0.125 0
0.25 -0.125 0
0.375 -0.125 0
0.25 0 0
0.375 0 0
0.375 -0.125 0
0.5 -0.125 0
0.375 0 0
0.5 0 0
0.5 -0.75 0
0.625 -0.75 0
0.5 -0.625 0
0.625 -0.625 0
0.625 -0.75 0
0.75 -0.75 0
0.625 -0.625 0
0.75 -0.625 0
0.5 -0.625 0
0.625 -0.625 0
0.5 -0.5 0
0.625 -0.5 0
0.625 -0.625 0
0.75 -0.625 0
0.625 -0.5 0
0.75 -0.5 0
0.25 -0.5 0
0.375 -0.5 0
0.25 -0.375 0
0.375 -0.375 0
0.375 -0.5 0
0.5 -0.5 0
0.375 -0.375 0
0.5 -0.375 0
0.25 -0.375 0
0.375 -0.375 0
0.25 -0.25 0
0.375 -0.25 0
0.375 -0.375 0
0.5 -0.375 0
0.375 -0.25 0
0.5 -0.25 0
0.25 -0.75 0
0.375 -0.75 0
0.25 -0.625 0
0.375 -0.625 0
0.375 -0.75 0
0.5 -0.75 0
0.375 -0.625 0
0.5 -0.625 0
0.25 -0.625 0
0.375 -0.625 0
0.25 -0.5 0
0.375 -0.5 0
0.375 -0.625 0
0.5 -0.625 0
0.375 -0.5 0
0.5 -0.5 0
0.5 -1 0
0.625 -1 0
0.5 -0.875 0
0.625 -0.875 0
0.625 -1 0
0.75 -1 0
0.625 -0.875 0
0.75 -0.875 0
0.5 -0.875 0
0.625 -0.875 0
0.5 -0.75 0
0.625 -0.75 0
0.625 -0.875 0
0.75 -0.875 0
0.625 -0.75 0
0.75 -0.75 0
-0.25 -0.25 0
-0.125 -0.25 0
-0.25 -0.125 0
-0.125 -0.125 0
-0.125 -0.25 0
0 -0.25 0
-0.125 -0.125 0
0 -0.125 0
-0.25 -0.125 0
-0.125 -0.125 0
-0.25 0 0
-0.125 0 0
-0.125 -0.125 0
0 -0.125 0
-0.125 0 0
0 0 0
-0.75 0 0
-0.625 0 0
-0.75 0.125 0
-0.625 0.125 0
-0.625 0 0
-0.5 0 0
-0.625 0.125 0
-0.5 0.125 0
-0.75 0.125 0
-0.625 0.125 0
-0.75 0.25 0
-0.625 0.25 0
-0.625 0.125 0
-0.5 0.125 0
-0.625 0.25 0
-0.5 0.25 0
-1 0.25 0
-0.875 0.25 0
-1 0.375 0
-0.875 0.375 0
-0.875 0.25 0
-0.75 0.25 0
-0.875 0.375 0
-0.75 0.375 0
-1 0.375 0
-0.875 0.375 0
-1 0.5 0
-0.875 0.5 0
-0.875 0.375 0
-0.75 0.375 0
-0.875 0.5 0
-0.75 0.5 0
-0.75 0.25 0
-0.625 0.25 0
-0.75 0.375 0
-0.625 0.375 0
-1 0.75 0
-0.875 0.75 0
-1 0.875 0
-0.875 0.875 0
-1 0.875 0
-0.875 0.875 0
-1 1 0
-0.875 1 0
-0.875 0.875 0
-0.75 0.875 0
-0.875 1 0
-0.75 1 0
-0.25 0 0
-0.125 0 0
-0.25 0.125 0
-0.125 0.125 0
-0.125 0 0
0 0 0
-0.125 0.125 0
0 0.125 0
-0.125 0.125 0
0 0.125 0
-0.125 0.25 0
0 0.25 0
-0.5 0 0
-0.375 0 0
-0.5 0.125 0
-0.375 0.125 0
-0.375 0 0
-0.25 0 0
-0.375 0.125 0
-0.25 0.125 0
-1 0.5 0
-0.875 0.5 0
-1 0.625 0
-0.875 0.625 0
-1 0.625 0
-0.875 0.625 0
-1 0.75 0
-0.875 0.75 0
-0.625 0.25 0
-0.5625 0.25 0
-0.625 0.3125 0
-0.5625 0.3125 0
-0.5625 0.25 0
-0.5 0.25 0
-0.5625 0.3125 0
-0.5 0.3125 0
-0.625 0.3125 0
-0.5625 0.3125 0
-0.625 0.375 0
-0.5625 0.375 0
-0.5625 0.3125 0
-0.5 0.3125 0
-0.5625 0.375 0
-0.5 0.375 0
-0.75 0.375 0
-0.6875 0.375 0
-0.75 0.4375 0
-0.6875 0.4375 0
-0.6875 0.375 0
-0.625 0.375 0
-0.6875 0.4375 0
-0.625 0.4375 0
-0.75 0.4375 0
-0.6875 0.4375 0
-0.75 0.5 0
-0.6875 0.5 0
-0.6875 0.4375 0
-0.625 0.4375 0
-0.6875 0.5 0
-0.625 0.5 0
-0.625 0.375 0
-0.5625 0.375 0
-0.625 0.4375 0
-0.5625 0.4375 0
-0.5625 0.375 0
-0.5 0.375 0
-0.5625 0.4375 0
-0.5 0.4375 0
-0.625 0.4375 0
-0.5625 0.4375 0
-0.625 0.5 0
-0.5625 0.5 0
-0.5625 0.4375 0
-0.5 0.4375 0
-0.5625 0.5 0
-0.5 0.5 0
-0.875 0.75 0
-0.8125 0.75 0
-0.875 0.8125 0
-0.8125 0.8125 0
-0.8125 0.75 0
-0.75 0.75 0
-0.8125 0.8125 0
-0.75 0.8125 0
-0.875 0.8125 0
-0.8125 0.8125 0
-0.875 0.875 0
-0.8125 0.875 0
-0.8125 0.8125 0
-0.75 0.8125 0
-0.8125 0.875 0
-0.75 0.875 0
-0.25 0.125 0
-0.1875 0.125 0
-0.25 0.1875 0
-0.1875 0.1875 0
-0.1875 0.125 0
-0.125 0.125 0
-0.1875 0.1875 0
-0.125 0.1875 0
-0.25 0.1875 0
-0.1875 0.1875 0
-0.25 0.25 0
-0.1875 0.25 0
-0.1875 0.1875 0
-0.125 0.1875 0
-0.1875 0.25 0
-0.125 0.25 0
-0.5 0.125 0
-0.4375 0.125 0
-0.5 0.1875 0
-0.4375 0.1875 0
-0.4375 0.125 0
-0.375 0.125 0
-0.4375 0.1875 0
-0.375 0.1875 0
-0.5 0.1875 0
-0.4375 0.1875 0
-0.5 0.25 0
-0.4375 0.25 0
-0.4375 0.1875 0
-0.375 0.1875 0
-0.4375 0.25 0
-0.375 0.25 0
-0.375 0.125 0
-0.3125 0.125 0
-0.375 0.1875 0
-0.3125 0.1875 0
-0.3125 0.125 0
-0.25 0.125 0
-0.3125 0.1875 0
-0.25 0.1875 0
-0.375 0.1875 0
-0.3125 0.1875 0
-0.375 0.25 0
-0.3125 0.25 0
-0.3125 0.1875 0
-0.25 0.1875 0
-0.3125 0.25 0
-0.25 0.25 0
-0.375 0.25 0
-0.3125 0.25 0
-0.375 0.3125 0
-0.3125 0.3125 0
-0.3125 0.25 0
-0.25 0.25 0
-0.3125 0.3125 0
-0.25 0.3125 0
-0.375 0.3125 0
-0.3125 0.3125 0
-0.375 0.375 0
-0.3125 0.375 0
-0.3125 0.3125 0
-0.25 0.3125 0
-0.3125 0.375 0
-0.25 0.375 0
-0.375 0.375 0
-0.3125 0.375 0
-0.375 0.4375 0
-0.3125 0.4375 0
-0.3125 0.375 0
-0.25 0.375 0
-0.3125 0.4375 0
-0.25 0.4375 0
-0.375 0.4375 0
-0.3125 0.4375 0
-0.375 0.5 0
-0.3125 0.5 0
-0.3125 0.4375 0
-0.25 0.4375 0
-0.3125 0.5 0
-0.25 0.5 0
-0.25 0.25 0
-0.1875 0.25 0
-0.25 0.3125 0
-0.1875 0.3125 0
-0.1875 0.25 0
-0.125 0.25 0
-0.1875 0.3125 0
-0.125 0.3125 0
-0.25 0.3125 0
-0.1875 0.3125 0
-0.25 0.375 0
-0.1875 0.375 0
-0.1875 0.3125 0
-0.125 0.3125 0
-0.1875 0.375 0
-0.125 0.375 0
-0.125 0.25 0
-0.0625 0.25 0
-0.125 0.3125 0
-0.0625 0.3125 0
-0.0625 0.25 0
0 0.25 0
-0.0625 0.3125 0
0 0.3125 0
-0.125 0.3125 0
-0.0625 0.3125 0
-0.125 0.375 0
-0.0625 0.375 0
-0.0625 0.3125 0
0 0.3125 0
-0.0625 0.375 0
0 0.375 0
-0.875 0.5 0
-0.8125 0.5 0
-0.875 0.5625 0
-0.8125 0.5625 0
-0.8125 0.5 0
-0.75 0.5 0
-0.8125 0.5625 0
-0.75 0.5625 0
-0.875 0.5625 0
-0.8125 0.5625 0
-0.875 0.625 0
-0.8125 0.625 0
-0.8125 0.5625 0
-0.75 0.5625 0
-0.8125 0.625 0
-0.75 0.625 0
-0.875 0.625 0
-0.8125 0.625 0
-0.875 0.6875 0
-0.8125 0.6875 0
-0.8125 0.625 0
-0.75 0.625 0
-0.8125 0.6875 0
-0.75 0.6875 0
-0.875 0.6875 0
-0.8125 0.6875 0
-0.875 0.75 0
-0.8125 0.75 0
-0.8125 0.6875 0
-0.75 0.6875 0
-0.8125 0.75 0
-0.75 0.75 0
-0.75 0.625 0
-0.6875 0.625 0
-0.75 0.6875 0
-0.6875 0.6875 0
-0.6875 0.625 0
-0.625 0.625 0
-0.6875 0.6875 0
-0.625 0.6875 0
-0.75 0.6875 0
-0.6875 0.6875 0
-0.75 0.75 0
-0.6875 0.75 0
-0.6875 0.6875 0
-0.625 0.6875 0
-0.6875 0.75 0
-0.625 0.75 0
-0.625 0.625 0
-0.5625 0.625 0
-0.625 0.6875 0
-0.5625 0.6875 0
-0.5625 0.625 0
-0.5 0.625 0
-0.5625 0.6875 0
-0.5 0.6875 0
-0.625 0.6875 0
-0.5625 0.6875 0
-0.625 0.75 0
-0.5625 0.75 0
-0.5625 0.6875 0
-0.5 0.6875 0
-0.5625 0.75 0
-0.5 0.75 0
-0.75 0.875 0
-0.6875 0.875 0
-0.75 0.9375 0
-0.6875 0.9375 0
-0.6875 0.875 0
-0.625 0.875 0
-0.6875 0.9375 0
-0.625 0.9375 0
-0.75 0.9375 0
-0.6875 0.9375 0
-0.75 1 0
-0.6875 1 0
-0.6875 0.9375 0
-0.625 0.9375 0
-0.6875 1 0
-0.625 1 0
-0.5 0.25 0
-0.4375 0.25 0
-0.5 0.3125 0
-0.4375 0.3125 0
-0.4375 0.25 0
-0.375 0.25 0
-0.4375 0.3125 0
-0.375 0.3125 0
-0.0625 0.375 0
0 0.375 0
-0.0625 0.4375 0
0 0.4375 0
-0.75 0.5 0
-0.6875 0.5 0
-0.75 0.5625 0
-0.6875 0.5625 0
-0.75 0.5625 0
-0.6875 0.5625 0
-0.75 0.625 0
-0.6875 0.625 0
-0.75 0.75 0
-0.6875 0.75 0
-0.75 0.8125 0
-0.6875 0.8125 0
-0.75 0.8125 0
-0.6875 0.8125 0
-0.75 0.875 0
-0.6875 0.875 0
-0.625 0.9375 0
-0.5625 0.9375 0
-0.625 1 0
-0.5625 1 0
-0.4375 0.5625 0
-0.375 0.5625 0
-0.4375 0.625 0
-0.375 0.625 0
-0.375 0.5625 0
-0.3125 0.5625 0
-0.375 0.625 0
-0.3125 0.625 0
-0.3125 0.5625 0
-0.25 0.5625 0
-0.3125 0.625 0
-0.25 0.625 0
-0.4375 0.625 0
-0.375 0.625 0
-0.4375 0.6875 0
-0.375 0.6875 0
-0.4375 0.6875 0
-0.375 0.6875 0
-0.4375 0.75 0
-0.375 0.75 0
-0.1875 0.5 0
-0.125 0.5 0
-0.1875 0.5625 0
-0.125 0.5625 0
-0.25 0.5625 0
-0.1875 0.5625 0
-0.25 0.625 0
-0.1875 0.625 0
-0.25 0.625 0
-0.1875 0.625 0
-0.25 0.6875 0
-0.1875 0.6875 0
-0.25 0.6875 0
-0.1875 0.6875 0
-0.25 0.75 0
-0.1875 0.75 0
-0.4375 0.75 0
-0.375 0.75 0
-0.4375 0.8125 0
-0.375 0.8125 0
-0.5 0.8125 0
-0.4375 0.8125 0
-0.5 0.875 0
-0.4375 0.875 0
-0.375 0.75 0
-0.3125 0.75 0
-0.375 0.8125 0
-0.3125 0.8125 0
-0.3125 0.75 0
-0.25 0.75 0
-0.3125 0.8125 0
-0.25 0.8125 0
[...]
  <PointData Scalars="scalars">
    <DataArray type="Float32" Name="U" format="ascii">
0 0 0 2.3641e-05 0 0 2.3641e-05 9.41631e-05 0 2.3641e-05 0 3.59764e-05 2.3641e-05 9.41631e-05 3.59764e-05 0.000143161 0 0 9.41631e-05 0.000272076 0 0 0.000272076 0.000594961 9.41631e-05 0.000272076 0.000143161 0.000410146 0.000272076 0.000594961 0.000410146 0.000882253 0 3.59764e-05 0 3.1069e-05 3.59764e-05 0.000143161 3.1069e-05 0.000114597 0 3.1069e-05 0 6.55182e-05 3.1069e-05 0.000114597 6.55182e-05 0.000237207 0.000143161 0.000410146 0.000114597 0.000318614 0.000410146 0.000882253 0.000318614 0.000678281 0.000114597 0.000318614 0.000237207 0.000318752 0 0 0.000594961 0.000990165 0 0 0.000990165 0.00114969 0.000594961 0.000990165 0.000882253 0.00146815 0 0 0.000808395 0 0.000882253 0.00146815 0.000678281 0.00108564 0.000678281 0.00108564 0 0 0 6.55182e-05 0 0.000511636 0.00168601 0.00154215 0.00159531 0.00146064 0.00154215 0.0011835 0.00146064 0.00112121 0.00159531 0.00146064 0.00124668 0.00114114 0.00146064 0.00112121 0.00114114 0.000875909 0.0011835 0.000643754 0.00112121 0.000610226 0.000643754 0 0.000610226 0 0.00112121 0.000610226 0.000875909 0.000476593 0.000610226 0 0.000476593 0 0.00124668 0.00114114 0.000683714 0.000626139 0.00114114 0.000875909 0.000626139 0.00048049 0.000683714 0.000626139 0 0 0.000626139 0.00048049 0 0 0.000875909 0.000476593 0.00048049 0.000261392 0.000476593 0 0.000261392 0 0.00048049 0.000261392 0 0 0.000261392 0 0 0 0.000808395 0.000404198 0.00106279 0.000576622 0.000404198 0 0.000576622 0 0.00106279 0.000576622 0.0011835 0.000643754 0.000576622 0 0.000643754 0 0.00108564 0.00119531 0.00054282 0.000659385 0.00119531 0.00124668 0.000659385 0.000683714 0.00054282 0.000659385 0 0 0.000659385 0.000683714 0 0 0.00114969 0.00103546 0.00151631 0.00139116 0.00103546 0.000808395 0.00139116 0.00106279 0.00151631 0.00139116 0.00168601 0.00154215 0.00139116 0.00106279 0.00154215 0.0011835 0.00146815 0.00161902 0.0012769 0.00154049 0.00161902 0.00168601 0.00154049 0.00159531 0.0012769 0.00154049 0.00108564 0.00119531 0.00154049 0.00159531 0.00119531 0.00124668 0.000990165 0.00106993 0.00122916 0.0014664 0.00106993 0.00114969 0.0014664 0.00151631 0.00122916 0.0014664 0.00146815 0.00161902 0.0014664 0.00151631 0.00161902 0.00168601 0 0 0.000574844 0.00054998 0 0 0.00054998 0.000404198 0.000574844 0.00054998 0.00114969 0.00103546 0.00054998 0.000404198 0.00103546 0.000808395 0.000318614 0.000498447 0.000318683 0.000324739 0.000498447 0.000678281 0.000324739 0.00033914 0.000318683 0.000324739 0.000318752 0.000258977 0.000324739 0.00033914 0.000258977 0 6.55182e-05 0.000151362 0.000288577 0.000430444 0.000151362 0.000237207 0.000430444 0.000648694 0.000288577 0.000430444 0.000511636 0.00110461 0.000430444 0.000648694 0.00110461 0.00179144 0 0.000255818 0 0.000385108 0.000255818 0.000511636 0.000385108 0.00109101 0 0.000385108 0 0.000577804 0.000385108 0.00109101 0.000577804 0.00176606 0.000511636 0.00110461 0.00109101 0.00239421 0 0.000701192 0 0.000404818 0 0.000404818 0 0 0.000404818 0.0013634 0 0 0.000318752 0.000258977 0.000803452 0.000472959 0.000258977 0 0.000472959 0 0.000472959 0 0.00138473 0 0.000237207 0.000277979 0.000648694 0.000838483 0.000277979 0.000318752 0.000838483 0.000803452 0 0.000577804 0 0.000741267 0 0.000741267 0 0.000701192 0.00110461 0.00144803 0.00174941 0.00225336 0.00144803 0.00179144 0.00225336 0.00285295 0.00174941 0.00225336 0.00239421 0.00334766 0.00225336 0.00285295 0.00334766 0.0042914 0.00109101 0.00174261 0.00142854 0.00224193 0.00174261 0.00239421 0.00224193 0.00334216 0.00142854 0.00224193 0.00176606 0.00283575 0.00224193 0.00334216 0.00283575 0.0042807 0.00239421 0.00334766 0.00334216 0.00474323 0.00334766 0.0042914 0.00474323 0.00635851 0.00334216 0.00474323 0.0042807 0.00635334 0.00474323 0.00635851 0.00635334 0.00905692 0.000701192 0.0012801 0.000553005 0.00109378 0.0012801 0.00219351 0.00109378 0.00189785 0.000553005 0.00109378 0.000404818 0.000884108 0.00109378 0.00189785 0.000884108 0.0013634 0.000803452 0.000638205 0.00133964 0.00115053 0.000638205 0.000472959 0.00115053 0.000928842 0.00133964 0.00115053 0.00222842 0.00191344 0.00115053 0.000928842 0.00191344 0.00138473 0.000648694 0.000743588 0.00122007 0.00129642 0.000743588 0.000838483 0.00129642 0.00140118 0.00122007 0.00129642 0.00179144 0.00212922 0.00129642 0.00140118 0.00212922 0.0023056 0.000838483 0.000820967 0.00140118 0.0014262 0.000820967 0.000803452 0.0014262 0.00133964 0.00140118 0.0014262 0.0023056 0.00234977 0.0014262 0.00133964 0.00234977 0.00222842 0.0023056 0.00234977 0.00373308 0.00382807 0.00234977 0.00222842 0.00382807 0.00366717 0.00373308 0.00382807 0.00577593 0.00600659 0.00382807 0.00366717 0.00600659 0.00578385 0.00577593 0.00600659 0.00888414 0.0092478 0.00600659 0.00578385 0.0092478 0.00897531 0.00888414 0.0092478 0.0132891 0.0138888 0.0092478 0.00897531 0.0138888 0.0135589 0.00222842 0.00191344 0.00366717 0.00316412 0.00191344 0.00138473 0.00316412 0.00233623 0.00366717 0.00316412 0.00578385 0.00506489 0.00316412 0.00233623 0.00506489 0.00380825 0.00138473 0.000692363 0.00233623 0.00123448 0.000692363 0 0.00123448 0 0.00233623 0.00123448 0.00380825 0.00203508 0.00123448 0 0.00203508 0 0.000577804 0.00117193 0.000659535 0.00124457 0.00117193 0.00176606 0.00124457 0.00209566 0.000659535 0.00124457 0.000741267 0.00134309 0.00124457 0.00209566 0.00134309 0.00226751 0.000741267 0.00134309 0.00072123 0.00136514 0.00134309 0.00226751 0.00136514 0.00230955 0.00072123 0.00136514 0.000701192 0.0012801 0.00136514 0.00230955 0.0012801 0.00219351 0.00226751 0.00370581 0.00230955 0.00379597 0.00370581 0.0057554 0.00379597 0.00598596 0.00230955 0.00379597 0.00219351 0.00364268 0.00379597 0.00598596 0.00364268 0.00573805 0.0057554 0.00887061 0.00598596 0.0092327 0.00887061 0.0132817 0.0092327 0.0138818 0.00598596 0.0092327 0.00573805 0.0089734 0.0092327 0.0138818 0.0089734 0.0135554 0.0013634 0.00232364 0.000681699 0.00122167 0.00232364 0.00376695 0.00122167 0.00202956 0.000681699 0.00122167 0 0 0.00122167 0.00202956 0 0 0.00179144 0.00212922 0.00285295 0.00336405 0.00212922 0.0023056 0.00336405 0.00373308 0.00203508 0 0.00333734 0 0.00176606 0.00283575 0.00209566 0.00334144 0.00209566 0.00334144 0.00226751 0.00370581 0.00219351 0.00364268 0.00189785 0.00313809 0.00189785 0.00313809 0.0013634 0.00232364 0.00202956 0.00333058 0 0 0.015469 0.0175617 0.0175593 0.0200424 0.0175617 0.0183987 0.0200424 0.0210476 0.0183987 0.0180223 0.0210476 0.0206666 0.0175593 0.0200424 0.0183957 0.0210465 0.0183957 0.0210465 0.0180197 0.0206656 0.0122642 0.00966537 0.0163949 0.0130778 0.0180223 0.0163949 0.0206666 0.0187118 0.0206666 0.0187118 0.0217664 0.019707 0.0217664 0.019707 0.0213965 0.0194073 0.0180197 0.0206656 0.0163934 0.0187109 0.012261 0.0163934 0.00966326 0.013077 0.0206656 0.0217659 0.0187109 0.0197065 0.0217659 0.0213965 0.0197065 0.0194071 0.0213965 0.0194073 0.0194071 0.0176793 0.00285295 0.0031085 0.00357217 0.00390896 0.0031085 0.00336405 0.00390896 0.00423573 0.00357217 0.00390896 0.0042914 0.00477669 0.00390896 0.00423573 0.00477669 0.0052383 0.00336405 0.00354857 0.00423573 0.00450144 0.00354857 0.00373308 0.00450144 0.0047545 0.00423573 0.00450144 0.0052383 0.00553026 0.00450144 0.0047545 0.00553026 0.00577593 0.0042914 0.00477669 0.00532495 0.00591667 0.00477669 0.0052383 0.00591667 0.00648008 0.00532495 0.00591667 0.00635851 0.00715413 0.00591667 0.00648008 0.00715413 0.00782865 0.0052383 0.00553026 0.00648008 0.00691786 0.00553026 0.00577593 0.00691786 0.00733004 0.00648008 0.00691786 0.00782865 0.00843835 0.00691786 0.00733004 0.00843835 0.00888414 0.00635851 0.00715413 0.00770772 0.00872175 0.00715413 0.00782865 0.00872175 0.00966777 0.00770772 0.00872175 0.00905692 0.010534 0.00872175 0.00966777 0.010534 0.0117761 0.00782865 0.00843835 0.00966777 0.0103684 0.00843835 0.00888414 0.0103684 0.0110866 0.00966777 0.0103684 0.0117761 0.0126016 0.0103684 0.0110866 0.0126016 0.0132891 0.00380825 0.00292166 0.0048656 0.00380799 0.00292166 0.00203508 0.00380799 0.00268621 0.0048656 0.00380799 0.00604791 0.00475686 0.00380799 0.00268621 0.00475686 0.00333734 0.0163949 0.0147364 0.0175533 0.0161905 0.0147364 0.0130778 0.0161905 0.0141402 0.0175533 0.0161905 0.0187118 0.0170596 0.0161905 0.0141402 0.0170596 0.014905 0.00966537 0.00772544 0.0113716 0.00952714 0.00772544 0.00568292 0.00952714 0.00693952 0.0113716 0.00952714 0.0130778 0.0107172 0.0130778 0.0107172 0.0141402 0.0117089 0.00425837 0 0.00476546 0 0.00604791 0.00475686 0.00772291 0.00613538 0.00475686 0.00333734 0.00613538 0.00437338 0.00772291 0.00613538 0.00966537 0.00772544 0.00613538 0.00437338 0.00772544 0.00568292 0.0187118 0.0170596 0.0192094 0.017707 0.0170596 0.014905 0.017707 0.0154563 0.0192094 0.017707 0.019707 0.0179704 0.017707 0.0154563 0.0179704 0.0156996 0.00333734 0.00166867 0.00437338 0.00223341 0.00166867 0 0.00223341 0 0.00437338 0.00223341 0.00568292 0.00300832 0.00223341 0 0.00300832 0 0.019707 0.0179704 0.0195572 0.0180157 0.0179704 0.0156996 0.0180157 0.0157373 0.0195572 0.0180157 0.0194073 0.0176947 0.0180157 0.0157373 0.0176947 0.015479 0.014905 0.0123257 0.0154563 0.0127728 0.00283575 0.00355822 0.00308859 0.00389253 0.00355822 0.0042807 0.00389253 0.00476342 0.00308859 0.00389253 0.00334144 0.00421702 0.00389253 0.00476342 0.00421702 0.00522282 0.00334144 0.00421702 0.00352363 0.00448001 0.00421702 0.00522282 0.00448001 0.00551231 0.00352363 0.00448001 0.00370581 0.00473061 0.00448001 0.00551231 0.00473061 0.0057554 0.0163934 0.0175521 0.0147352 0.0161896 0.0175521 0.0187109 0.0161896 0.0170588 0.0147352 0.0161896 0.013077 0.0141395 0.0161896 0.0170588 0.0141395 0.0149043 0.0042807 0.00531702 0.00476342 0.00590634 0.00531702 0.00635334 0.00590634 0.00714648 0.00476342 0.00590634 0.00522282 0.0064677 0.00590634 0.00714648 0.0064677 0.00781908 0.00635334 0.00770513 0.00714648 0.00871677 0.00770513 0.00905692 0.00871677 0.0105315 0.00714648 0.00871677 0.00781908 0.00966101 0.00871677 0.0105315 0.00966101 0.0117719 0.0187109 0.0192087 0.0170588 0.0177065 0.0192087 0.0197065 0.0177065 0.0179699 0.0170588 0.0177065 0.0149043 0.0154558 0.0177065 0.0179699 0.0154558 0.0156991 0.0197065 0.0195568 0.0179699 0.0180153 0.0195568 0.0194071 0.0180153 0.0176945 0.0179699 0.0180153 0.0156991 0.015737 0.0180153 0.0176945 0.015737 0.0154787 0.00966326 0.0113701 0.00772361 0.00952601 0.0113701 0.013077 0.00952601 0.0107163 0.00772361 0.00952601 0.00568207 0.00693857 0.013077 0.0141395 0.0107163 0.0117083 0.00425812 0.00476521 0 0 0.0149043 0.0154558 0.0123251 0.0127724 0.00522282 0.0064677 0.00551231 0.00690314 0.0064677 0.00781908 0.00690314 0.00842693 0.00551231 0.00690314 0.0057554 0.007313 0.00690314 0.00842693 0.007313 0.00887061 0.0194073 0.0176947 0.0185433 0.0171465 0.0176947 0.015479 0.0171465 0.0150077 0.0185433 0.0171465 0.0176793 0.016177 0.0171465 0.0150077 0.016177 0.0141973 0.0194071 0.0185432 0.0176945 0.0171463 0.0185432 0.0176793 0.0171463 0.0161769 0.0176945 0.0171463 0.0154787 0.0150075 0.0171463 0.0161769 0.0150075 0.0141972 0.0176793 0.016177 0.0161769 0.0149147 0.016177 0.0141973 0.0149147 0.0131249 0.0161769 0.0149147 0.0141972 0.0131249 0.0149147 0.0131249 0.0131249 0.0115871 0.0131249 0.0109279 0.0115871 0.00968877 0.0109279 0.00801051 0.00968877 0.00714885 0.00448008 0 0.00402907 0 0.0131249 0.0115871 0.0109278 0.00968875 0.0109278 0.00968875 0.00801046 0.00714882 0.00448005 0.00402905 0 0 0.00968877 0.00714885 0.00817368 0.00604482 0.00968875 0.00817368 0.00714882 0.00604481 0.00349749 0 0.00261519 0 0.00349748 0.00261519 0 0 0.00781908 0.00966101 0.00842693 0.0103602 0.00966101 0.0117719 0.0103602 0.0125958 0.00842693 0.0103602 0.00887061 0.0110762 0.0103602 0.0125958 0.0110762 0.0132817 0.00578385 0.00542437 0.00737958 0.00691783 0.00542437 0.00506489 0.00691783 0.00641544 0.00737958 0.00691783 0.00897531 0.00853906 0.00691783 0.00641544 0.00853906 0.00792158 0.00506489 0.00443657 0.00641544 0.00569866 0.00443657 0.00380825 0.00569866 0.0048656 0.00641544 0.00569866 0.00792158 0.00705974 0.00569866 0.0048656 0.00705974 0.00604791 0.00897531 0.00853906 0.0112671 0.0106058 0.00853906 0.00792158 0.0106058 0.00993315 0.0112671 0.0106058 0.0135589 0.0129853 0.0106058 0.00993315 0.0129853 0.0122642 0.00792158 0.00705974 0.00993315 0.00889782 0.00705974 0.00604791 0.00889782 0.00772291 0.00993315 0.00889782 0.0122642 0.0109648 0.00889782 0.00772291 0.0109648 0.00966537 0.00364268 0.00469036 0.00339038 0.0043809 0.00469036 0.00573805 0.0043809 0.00544702 0.00339038 0.0043809 0.00313809 0.0040313 0.0043809 0.00544702 0.0040313 0.00507541 0.00313809 0.0040313 0.00273086 0.00355109 0.0040313 0.00507541 0.00355109 0.00445088 0.00273086 0.00355109 0.00232364 0.00304529 0.00355109 0.00445088 0.00304529 0.00376695 0.00376695 0.00485427 0.00289826 0.00380531 0.00485427 0.00605307 0.00380531 0.00475544 0.00289826 0.00380531 0.00202956 0.00268007 0.00380531 0.00475544 0.00268007 0.00333058 0.00605307 0.00771974 0.00475544 0.00613051 0.00771974 0.00966326 0.00613051 0.00772361 0.00475544 0.00613051 0.00333058 0.00436868 0.00613051 0.00772361 0.00436868 0.00568207 0.00333058 0.00436868 0.00166529 0.00223228 0.00436868 0.00568207 0.00223228 0.003008 0.00166529 0.00223228 0 0 0.00223228 0.003008 0 0 0.00573805 0.00735572 0.00544702 0.00691384 0.00735572 0.0089734 0.00691384 0.00853113 0.00544702 0.00691384 0.00507541 0.00642757 0.00691384 0.00853113 0.00642757 0.0079112 0.0089734 0.0112644 0.00853113 0.0106059 0.0112644 0.0135554 0.0106059 0.0129825 0.00853113 0.0106059 0.0079112 0.00993612 0.0106059 0.0129825 0.00993612 0.012261 0.00507541 0.00642757 0.00445088 0.00569122 0.00642757 0.0079112 0.00569122 0.00705475 0.00445088 0.00569122 0.00376695 0.00485427 0.00569122 0.00705475 0.00485427 0.00605307 0.0079112 0.00993612 0.00705475 0.00889764 0.00993612 0.012261 0.00889764 0.0109621 0.00705475 0.00889764 0.00605307 0.00771974 0.00889764 0.0109621 0.00771974 0.00966326 0.00905692 0.010534 0.0105315 0.0123037 0.010534 0.0117761 0.0123037 0.0137858 0.0105315 0.0123037 0.0117719 0.0137838 0.0123037 0.0137858 0.0137838 0.015469 0.0117761 0.0126016 0.0137858 0.0147653 0.0126016 0.0132891 0.0147653 0.0156148 0.0137858 0.0147653 0.015469 0.0165154 0.0147653 0.0156148 0.0165154 0.0175617 0.0117719 0.0137838 0.0125958 0.0147622 0.0137838 0.015469 0.0147622 0.0165142 0.0125958 0.0147622 0.0132817 0.0156099 0.0147622 0.0165142 0.0156099 0.0175593 0.0132891 0.013589 0.0156148 0.0160538 0.013589 0.0138888 0.0160538 0.0163222 0.0156148 0.0160538 0.0175617 0.0179802 0.0160538 0.0163222 0.0179802 0.0183987 0.0138888 0.0137239 0.0163222 0.0162371 0.0137239 0.0135589 0.0162371 0.0159848 0.0163222 0.0162371 0.0183987 0.0182105 0.0162371 0.0159848 0.0182105 0.0180223 0.0132817 0.0156099 0.0135817 0.0160494 0.0156099 0.0175593 0.0160494 0.0179775 0.0135817 0.0160494 0.0138818 0.0163171 0.0160494 0.0179775 0.0163171 0.0183957 0.0138818 0.0163171 0.0137186 0.0162312 0.0163171 0.0183957 0.0162312 0.0182077 0.0137186 0.0162312 0.0135554 0.0159803 0.0162312 0.0182077 0.0159803 0.0180197 0.0200424 0.020545 0.0205444 0.021275 0.020545 0.0210476 0.021275 0.0216995 0.0205444 0.021275 0.0210465 0.021699 0.021275 0.0216995 0.021699 0.0221361 0.0210476 0.0208571 0.0216995 0.0215939 0.0208571 0.0206666 0.0215939 0.0212165 0.0216995 0.0215939 0.0221361 0.022037 0.0215939 0.0212165 0.022037 0.0217664 0.0210465 0.021699 0.020856 0.0215932 0.021699 0.0221361 0.0215932 0.0220367 0.020856 0.0215932 0.0206656 0.0212157 0.0215932 0.0220367 0.0212157 0.0217659 0.0221361 0.022037 0.0220367 0.0219367 0.022037 0.0217664 0.0219367 0.0215814 0.0220367 0.0219367 0.0217659 0.0215812 0.0219367 0.0215814 0.0215812 0.0213965 0.0135589 0.0129853 0.0159848 0.015306 0.0129853 0.0122642 0.015306 0.0143295 0.0159848 0.015306 0.0180223 0.0172086 0.015306 0.0143295 0.0172086 0.0163949 0.00568292 0.00300832 0.00693952 0.00377087 0.00300832 0 0.00377087 0 0.00693952 0.00377087 0.00797595 0.00425837 0.00377087 0 0.00425837 0 0.0135554 0.0159803 0.0129825 0.0153019 0.0159803 0.0180197 0.0153019 0.0172065 0.0129825 0.0153019 0.012261 0.0143272 0.0153019 0.0172065 0.0143272 0.0163934 0.00568207 0.00693857 0.003008 0.00377032 0.00693857 0.00797553 0.00377032 0.00425812 0.003008 0.00377032 0 0 0.00377032 0.00425812 0 0 0.00478053 0.00261519 0.00261519 0.00154673 0.00261519 0 0.00154673 0 0.00261519 0.00154673 0 0 0.00154673 0 0 0 0.00952714 0.00823333 0.0101222 0.00878434 0.00823333 0.00693952 0.00878434 0.00745774 0.0101222 0.00878434 0.0107172 0.00933292 0.00878434 0.00745774 0.00933292 0.00797595 0.0107172 0.00933292 0.0112131 0.00972494 0.00933292 0.00797595 0.00972494 0.00822965 0.0112131 0.00972494 0.0117089 0.0101181 0.00972494 0.00822965 0.0101181 0.00850191 0.0141402 0.0129246 0.0145226 0.0132824 0.0129246 0.0117089 0.0132824 0.0120242 0.0145226 0.0132824 0.014905 0.0136153 0.0132824 0.0120242 0.0136153 0.0123257 0.0117089 0.0101181 0.0120242 0.010402 0.0101181 0.00850191 0.010402 0.00874358 0.0120242 0.010402 0.0123257 0.0106673 0.010402 0.00874358 0.0106673 0.00896824 0.00797595 0.00611716 0.00822965 0.00640049 0.00611716 0.00425837 0.00640049 0.00451192 0.00822965 0.00640049 0.00850191 0.0066675 0.00640049 0.00451192 0.0066675 0.00476546 0.00850191 0.0066675 0.00874358 0.00682536 0.0066675 0.00476546 0.00682536 0.00485432 0.00874358 0.00682536 0.00896824 0.00699152 0.00682536 0.00485432 0.00699152 0.00496798 0.00476546 0.00238273 0.00485432 0.00244387 0.00238273 0 0.00244387 0 0.00485432 0.00244387 0.00496798 0.00250873 0.00244387 0 0.00250873 0 0.0123257 0.0106673 0.0125492 0.010862 0.0106673 0.00896824 0.010862 0.00912848 0.0125492 0.010862 0.0127728 0.0110459 0.010862 0.00912848 0.0110459 0.00927973 0.0154563 0.0141145 0.0155779 0.0142438 0.0141145 0.0127728 0.0142438 0.0128776 0.0155779 0.0142438 0.0156996 0.0143512 0.0142438 0.0128776 0.0143512 0.0129713 0.0127728 0.0110459 0.0128776 0.0111311 0.0110459 0.00927973 0.0111311 0.00934972 0.0128776 0.0111311 0.0129713 0.0112083 0.0111311 0.00934972 0.0112083 0.0094131 0.00896824 0.00699152 0.00912848 0.00711605 0.00699152 0.00496798 0.00711605 0.00505823 0.00912848 0.00711605 0.00927973 0.007233 0.00711605 0.00505823 0.007233 0.00514079 0.00496798 0.00250873 0.00505823 0.00255541 0.00250873 0 0.00255541 0 0.00505823 0.00255541 0.00514079 0.00259693 0.00255541 0 0.00259693 0 0.00927973 0.007233 0.00934972 0.00728663 0.007233 0.00514079 0.00728663 0.00517781 0.00934972 0.00728663 0.0094131 0.00733541 0.00728663 0.00517781 0.00733541 0.00521171 0.00514079 0.00259693 0.00517781 0.00261545 0.00259693 0 0.00261545 0 0.00517781 0.00261545 0.00521171 0.00263238 0.00261545 0 0.00263238 0 0.0156996 0.0143512 0.0157184 0.0143764 0.0143512 0.0129713 0.0143764 0.0129941 0.0157184 0.0143764 0.0157373 0.0143877 0.0143764 0.0129941 0.0143877 0.0130052 0.0129713 0.0112083 0.0129941 0.0112271 0.0112083 0.0094131 0.0112271 0.00942887 0.0129941 0.0112271 0.0130052 0.0112369 0.0112271 0.00942887 0.0112369 0.00943739 0.0157373 0.0143877 0.0156081 0.01428 0.0143877 0.0130052 0.01428 0.0129108 0.0156081 0.01428 0.015479 0.0141585 0.01428 0.0129108 0.0141585 0.0128047 0.0130052 0.0112369 0.0129108 0.011157 0.0112369 0.00943739 0.011157 0.0093723 0.0129108 0.011157 0.0128047 0.0110674 0.011157 0.0093723 0.0110674 0.0092993 0.0094131 0.00733541 0.00942887 0.00734747 0.00733541 0.00521171 0.00734747 0.00522011 0.00942887 0.00734747 0.00943739 0.00735395 0.00734747 0.00522011 0.00735395 0.00522478 0.00521171 0.00263238 0.00522011 0.00263658 0.00263238 0 0.00263658 0 0.00522011 0.00263658 0.00522478 0.0026389 0.00263658 0 0.0026389 0 0.00943739 0.00735395 0.0093723 0.00730482 0.00735395 0.00522478 0.00730482 0.00519173 0.0093723 0.00730482 0.0092993 0.00724971 0.00730482 0.00519173 0.00724971 0.00515469 0.00522478 0.0026389 0.00519173 0.00262235 0.0026389 0 0.00262235 0 0.00519173 0.00262235 0.00515469 0.00260381 0.00262235 0 0.00260381 0 0.00952601 0.0101212 0.00823229 0.00878357 0.0101212 0.0107163 0.00878357 0.00933231 0.00823229 0.00878357 0.00693857 0.00