<?xml version="1.0" ?> 
<!-- 
# vtk DataFile Version 3.0
#This file was generated by the deal.II library on 23:53:57 at 2021/5/3
-->
<VTKFile type="UnstructuredGrid" version="0.1" byte_order="LittleEndian">
<UnstructuredGrid>
<FieldData>
<DataArray type="Float32" Name="CYCLE" NumberOfTuples="1" format="ascii">247</DataArray>
<DataArray type="Float32" Name="TIME" NumberOfTuples="1" format="ascii">0.494</DataArray>
</FieldData>
<Piece NumberOfPoints="7752" NumberOfCells="1938" >
  <Points>
    <DataArray type="Float32" NumberOfComponents="3" format="ascii">
-1 -1 0
-0.75 -1 0
-1 -0.75 0
-0.75 -0.75 0
-0.75 -1 0
-0.5 -1 0
-0.75 -0.75 0
-0.5 -0.75 0
-1 -0.75 0
-0.75 -0.75 0
-1 -0.5 0
-0.75 -0.5 0
-1 -0.5 0
-0.75 -0.5 0
-1 -0.25 0
-0.75 -0.25 0
-0.75 -0.125 0
-0.625 -0.125 0
-0.75 0 0
-0.625 0 0
0 -1 0
0.125 -1 0
0 -0.875 0
0.125 -0.875 0
0.125 -1 0
0.25 -1 0
0.125 -0.875 0
0.25 -0.875 0
-0.25 -1 0
-0.125 -1 0
-0.25 -0.875 0
-0.125 -0.875 0
-0.125 -1 0
0 -1 0
-0.125 -0.875 0
0 -0.875 0
-0.5 -0.25 0
-0.375 -0.25 0
-0.5 -0.125 0
-0.375 -0.125 0
-1 -0.25 0
-0.875 -0.25 0
-1 -0.125 0
-0.875 -0.125 0
-0.875 -0.25 0
-0.75 -0.25 0
-0.875 -0.125 0
-0.75 -0.125 0
-1 -0.125 0
-0.875 -0.125 0
-1 0 0
-0.875 0 0
-0.875 -0.125 0
-0.75 -0.125 0
-0.875 0 0
-0.75 0 0
-0.5 -0.375 0
-0.375 -0.375 0
-0.5 -0.25 0
-0.375 -0.25 0
-0.375 -0.375 0
-0.25 -0.375 0
-0.375 -0.25 0
-0.25 -0.25 0
0.25 -1 0
0.375 -1 0
0.25 -0.875 0
0.375 -0.875 0
-0.625 0 0
-0.5 0 0
-0.625 0.125 0
-0.5 0.125 0
-1 0 0
-0.875 0 0
-1 0.125 0
-0.875 0.125 0
-1 0.125 0
-0.875 0.125 0
-1 0.25 0
-0.875 0.25 0
-0.5 0 0
-0.375 0 0
-0.5 0.125 0
-0.375 0.125 0
-1 0.25 0
-0.875 0.25 0
-1 0.375 0
-0.875 0.375 0
-0.875 0.25 0
-0.75 0.25 0
-0.875 0.375 0
-0.75 0.375 0
-1 0.375 0
-0.875 0.375 0
-1 0.5 0
-0.875 0.5 0
-0.875 0.375 0
-0.75 0.375 0
-0.875 0.5 0
-0.75 0.5 0
-1 0.5 0
-0.875 0.5 0
-1 0.625 0
-0.875 0.625 0
-0.875 0.5 0
-0.75 0.5 0
-0.875 0.625 0
-0.75 0.625 0
-1 0.625 0
-0.875 0.625 0
-1 0.75 0
-0.875 0.75 0
-0.875 0.625 0
-0.75 0.625 0
-0.875 0.75 0
-0.75 0.75 0
-1 0.75 0
-0.875 0.75 0
-1 0.875 0
-0.875 0.875 0
-0.875 0.75 0
-0.75 0.75 0
-0.875 0.875 0
-0.75 0.875 0
-1 0.875 0
-0.875 0.875 0
-1 1 0
-0.875 1 0
-0.875 0.875 0
-0.75 0.875 0
-0.875 1 0
-0.75 1 0
-0.5 -0.75 0
-0.375 -0.75 0
-0.5 -0.625 0
-0.375 -0.625 0
-0.375 -0.75 0
-0.25 -0.75 0
-0.375 -0.625 0
-0.25 -0.625 0
-0.5 -1 0
-0.375 -1 0
-0.5 -0.875 0
-0.375 -0.875 0
-0.375 -1 0
-0.25 -1 0
-0.375 -0.875 0
-0.25 -0.875 0
-0.5 -0.875 0
-0.375 -0.875 0
-0.5 -0.75 0
-0.375 -0.75 0
-0.375 0.375 0
-0.25 0.375 0
-0.375 0.5 0
-0.25 0.5 0
-0.25 0.375 0
-0.125 0.375 0
-0.25 0.5 0
-0.125 0.5 0
-0.125 0.375 0
0 0.375 0
-0.125 0.5 0
0 0.5 0
-0.75 -0.75 0
-0.625 -0.75 0
-0.75 -0.625 0
-0.625 -0.625 0
-0.625 -0.75 0
-0.5 -0.75 0
-0.625 -0.625 0
-0.5 -0.625 0
-0.75 -0.625 0
-0.625 -0.625 0
-0.75 -0.5 0
-0.625 -0.5 0
-0.625 -0.625 0
-0.5 -0.625 0
-0.625 -0.5 0
-0.5 -0.5 0
-0.625 0.625 0
-0.5 0.625 0
-0.625 0.75 0
-0.5 0.75 0
-0.125 0.75 0
0 0.75 0
-0.125 0.875 0
0 0.875 0
-0.25 0.875 0
-0.125 0.875 0
-0.25 1 0
-0.125 1 0
-0.125 0.875 0
0 0.875 0
-0.125 1 0
0 1 0
-0.625 0.75 0
-0.5 0.75 0
-0.625 0.875 0
-0.5 0.875 0
-0.75 0.875 0
-0.625 0.875 0
-0.75 1 0
-0.625 1 0
-0.625 0.875 0
-0.5 0.875 0
-0.625 1 0
-0.5 1 0
-0.5 0.5 0
-0.375 0.5 0
-0.5 0.625 0
-0.375 0.625 0
-0.375 0.5 0
-0.25 0.5 0
-0.375 0.625 0
-0.25 0.625 0
-0.5 0.625 0
-0.375 0.625 0
-0.5 0.75 0
-0.375 0.75 0
-0.375 0.625 0
-0.25 0.625 0
-0.375 0.75 0
-0.25 0.75 0
-0.25 0.5 0
-0.125 0.5 0
-0.25 0.625 0
-0.125 0.625 0
-0.125 0.5 0
0 0.5 0
-0.125 0.625 0
0 0.625 0
-0.25 0.625 0
-0.125 0.625 0
-0.25 0.75 0
-0.125 0.75 0
-0.125 0.625 0
0 0.625 0
-0.125 0.75 0
0 0.75 0
-0.5 0.75 0
-0.375 0.75 0
-0.5 0.875 0
-0.375 0.875 0
-0.5 0.875 0
-0.375 0.875 0
-0.5 1 0
-0.375 1 0
-0.375 0.875 0
-0.25 0.875 0
-0.375 1 0
-0.25 1 0
-0.75 -0.5 0
-0.625 -0.5 0
-0.75 -0.375 0
-0.625 -0.375 0
-0.625 -0.5 0
-0.5 -0.5 0
-0.625 -0.375 0
-0.5 -0.375 0
-0.75 -0.375 0
-0.625 -0.375 0
-0.75 -0.25 0
-0.625 -0.25 0
-0.625 -0.375 0
-0.5 -0.375 0
-0.625 -0.25 0
-0.5 -0.25 0
0.5 -0.875 0
0.5625 -0.875 0
0.5 -0.8125 0
0.5625 -0.8125 0
0.5625 -0.875 0
0.625 -0.875 0
0.5625 -0.8125 0
0.625 -0.8125 0
0.1875 -0.75 0
0.25 -0.75 0
0.1875 -0.6875 0
0.25 -0.6875 0
0.8125 -0.875 0
0.875 -0.875 0
0.8125 -0.8125 0
0.875 -0.8125 0
0 -0.625 0
0.0625 -0.625 0
0 -0.5625 0
0.0625 -0.5625 0
0.1875 -0.625 0
0.25 -0.625 0
0.1875 -0.5625 0
0.25 -0.5625 0
0.125 -0.5625 0
0.1875 -0.5625 0
0.125 -0.5 0
0.1875 -0.5 0
0.1875 -0.5625 0
0.25 -0.5625 0
0.1875 -0.5 0
0.25 -0.5 0
0.0625 -0.4375 0
0.125 -0.4375 0
0.0625 -0.375 0
0.125 -0.375 0
-0.125 -0.5 0
-0.0625 -0.5 0
-0.125 -0.4375 0
-0.0625 -0.4375 0
-0.0625 -0.5 0
0 -0.5 0
-0.0625 -0.4375 0
0 -0.4375 0
-0.125 -0.4375 0
-0.0625 -0.4375 0
-0.125 -0.375 0
-0.0625 -0.375 0
-0.0625 -0.4375 0
0 -0.4375 0
-0.0625 -0.375 0
0 -0.375 0
0.125 -0.125 0
0.1875 -0.125 0
0.125 -0.0625 0
0.1875 -0.0625 0
0.1875 -0.125 0
0.25 -0.125 0
0.1875 -0.0625 0
0.25 -0.0625 0
0.125 -0.0625 0
0.1875 -0.0625 0
0.125 0 0
0.1875 0 0
0.1875 -0.0625 0
0.25 -0.0625 0
0.1875 0 0
0.25 0 0
0.25 -0.75 0
0.3125 -0.75 0
0.25 -0.6875 0
0.3125 -0.6875 0
0.25 -0.6875 0
0.3125 -0.6875 0
0.25 -0.625 0
0.3125 -0.625 0
-0.125 -0.375 0
-0.0625 -0.375 0
-0.125 -0.3125 0
-0.0625 -0.3125 0
0.0625 -0.6875 0
0.125 -0.6875 0
0.0625 -0.625 0
0.125 -0.625 0
0.375 -0.875 0
0.4375 -0.875 0
0.375 -0.8125 0
0.4375 -0.8125 0
0.375 -0.8125 0
0.4375 -0.8125 0
0.375 -0.75 0
0.4375 -0.75 0
0.4375 -0.8125 0
0.5 -0.8125 0
0.4375 -0.75 0
0.5 -0.75 0
0.5 -1 0
0.5625 -1 0
0.5 -0.9375 0
0.5625 -0.9375 0
0.5625 -1 0
0.625 -1 0
0.5625 -0.9375 0
0.625 -0.9375 0
0 -0.125 0
0.0625 -0.125 0
0 -0.0625 0
0.0625 -0.0625 0
-0.125 -0.125 0
-0.0625 -0.125 0
-0.125 -0.0625 0
-0.0625 -0.0625 0
-0.125 -0.0625 0
-0.0625 -0.0625 0
-0.125 0 0
-0.0625 0 0
-0.25 -0.625 0
-0.1875 -0.625 0
-0.25 -0.5625 0
-0.1875 -0.5625 0
-0.1875 -0.5625 0
-0.125 -0.5625 0
-0.1875 -0.5 0
-0.125 -0.5 0
-0.25 -0.75 0
-0.1875 -0.75 0
-0.25 -0.6875 0
-0.1875 -0.6875 0
-0.1875 -0.75 0
-0.125 -0.75 0
-0.1875 -0.6875 0
-0.125 -0.6875 0
-0.25 -0.6875 0
-0.1875 -0.6875 0
-0.25 -0.625 0
-0.1875 -0.625 0
-0.1875 -0.6875 0
-0.125 -0.6875 0
-0.1875 -0.625 0
-0.125 -0.625 0
0.75 -1 0
0.8125 -1 0
0.75 -0.9375 0
0.8125 -0.9375 0
0.8125 -1 0
0.875 -1 0
0.8125 -0.9375 0
0.875 -0.9375 0
0.75 -0.9375 0
0.8125 -0.9375 0
0.75 -0.875 0
0.8125 -0.875 0
0.8125 -0.9375 0
0.875 -0.9375 0
0.8125 -0.875 0
0.875 -0.875 0
0.875 -0.875 0
0.9375 -0.875 0
0.875 -0.8125 0
0.9375 -0.8125 0
0.9375 -0.875 0
1 -0.875 0
0.9375 -0.8125 0
1 -0.8125 0
0.875 -0.8125 0
0.9375 -0.8125 0
0.875 -0.75 0
0.9375 -0.75 0
0.9375 -0.8125 0
1 -0.8125 0
0.9375 -0.75 0
1 -0.75 0
-0.125 -0.75 0
-0.0625 -0.75 0
-0.125 -0.6875 0
-0.0625 -0.6875 0
-0.125 -0.6875 0
-0.0625 -0.6875 0
-0.125 -0.625 0
-0.0625 -0.625 0
-0.0625 -0.6875 0
0 -0.6875 0
-0.0625 -0.625 0
0 -0.625 0
-0.25 -0.375 0
-0.1875 -0.375 0
-0.25 -0.3125 0
-0.1875 -0.3125 0
-0.1875 -0.375 0
-0.125 -0.375 0
-0.1875 -0.3125 0
-0.125 -0.3125 0
-0.25 -0.3125 0
-0.1875 -0.3125 0
-0.25 -0.25 0
-0.1875 -0.25 0
-0.125 0 0
-0.0625 0 0
-0.125 0.0625 0
-0.0625 0.0625 0
-0.125 0.0625 0
-0.0625 0.0625 0
-0.125 0.125 0
-0.0625 0.125 0
-0.75 -0.25 0
-0.6875 -0.25 0
-0.75 -0.1875 0
-0.6875 -0.1875 0
-0.6875 -0.25 0
-0.625 -0.25 0
-0.6875 -0.1875 0
-0.625 -0.1875 0
-0.75 -0.1875 0
-0.6875 -0.1875 0
-0.75 -0.125 0
-0.6875 -0.125 0
-0.6875 -0.1875 0
-0.625 -0.1875 0
-0.6875 -0.125 0
-0.625 -0.125 0
0 -0.25 0
0.0625 -0.25 0
0 -0.1875 0
0.0625 -0.1875 0
0.0625 -0.25 0
0.125 -0.25 0
0.0625 -0.1875 0
0.125 -0.1875 0
0 -0.1875 0
0.0625 -0.1875 0
0 -0.125 0
0.0625 -0.125 0
0.0625 -0.1875 0
0.125 -0.1875 0
0.0625 -0.125 0
0.125 -0.125 0
-0.125 -0.875 0
-0.0625 -0.875 0
-0.125 -0.8125 0
-0.0625 -0.8125 0
-0.0625 -0.875 0
0 -0.875 0
-0.0625 -0.8125 0
0 -0.8125 0
-0.125 -0.8125 0
-0.0625 -0.8125 0
-0.125 -0.75 0
-0.0625 -0.75 0
-0.0625 -0.8125 0
0 -0.8125 0
-0.0625 -0.75 0
0 -0.75 0
-0.625 -0.25 0
-0.5625 -0.25 0
-0.625 -0.1875 0
-0.5625 -0.1875 0
-0.5625 -0.25 0
-0.5 -0.25 0
-0.5625 -0.1875 0
-0.5 -0.1875 0
-0.625 -0.1875 0
-0.5625 -0.1875 0
-0.625 -0.125 0
-0.5625 -0.125 0
-0.5625 -0.1875 0
-0.5 -0.1875 0
-0.5625 -0.125 0
-0.5 -0.125 0
-0.625 -0.125 0
-0.5625 -0.125 0
-0.625 -0.0625 0
-0.5625 -0.0625 0
-0.5625 -0.125 0
-0.5 -0.125 0
-0.5625 -0.0625 0
-0.5 -0.0625 0
-0.625 -0.0625 0
-0.5625 -0.0625 0
-0.625 0 0
-0.5625 0 0
-0.5625 -0.0625 0
-0.5 -0.0625 0
-0.5625 0 0
-0.5 0 0
0.625 -1 0
0.6875 -1 0
0.625 -0.9375 0
0.6875 -0.9375 0
0.6875 -1 0
0.75 -1 0
0.6875 -0.9375 0
0.75 -0.9375 0
0.625 -0.9375 0
0.6875 -0.9375 0
0.625 -0.875 0
0.6875 -0.875 0
0.6875 -0.9375 0
0.75 -0.9375 0
0.6875 -0.875 0
0.75 -0.875 0
0 -0.875 0
0.0625 -0.875 0
0 -0.8125 0
0.0625 -0.8125 0
0.0625 -0.875 0
0.125 -0.875 0
0.0625 -0.8125 0
0.125 -0.8125 0
0 -0.8125 0
0.0625 -0.8125 0
0 -0.75 0
0.0625 -0.75 0
0.0625 -0.8125 0
0.125 -0.8125 0
0.0625 -0.75 0
0.125 -0.75 0
-0.625 0.125 0
-0.5625 0.125 0
-0.625 0.1875 0
-0.5625 0.1875 0
-0.5625 0.125 0
-0.5 0.125 0
-0.5625 0.1875 0
-0.5 0.1875 0
-0.625 0.1875 0
-0.5625 0.1875 0
-0.625 0.25 0
-0.5625 0.25 0
-0.5625 0.375 0
-0.5 0.375 0
-0.5625 0.4375 0
-0.5 0.4375 0
-0.5625 0.4375 0
-0.5 0.4375 0
-0.5625 0.5 0
-0.5 0.5 0
0.875 -0.75 0
0.9375 -0.75 0
0.875 -0.6875 0
0.9375 -0.6875 0
0.9375 -0.75 0
1 -0.75 0
0.9375 -0.6875 0
1 -0.6875 0
0.875 -0.625 0
0.9375 -0.625 0
0.875 -0.5625 0
0.9375 -0.5625 0
0.9375 -0.625 0
1 -0.625 0
0.9375 -0.5625 0
1 -0.5625 0
0.875 -0.5625 0
0.9375 -0.5625 0
0.875 -0.5 0
0.9375 -0.5 0
0.9375 -0.5625 0
1 -0.5625 0
0.9375 -0.5 0
1 -0.5 0
0.125 -0.875 0
0.1875 -0.875 0
0.125 -0.8125 0
0.1875 -0.8125 0
0.1875 -0.875 0
0.25 -0.875 0
0.1875 -0.8125 0
0.25 -0.8125 0
0.125 -0.8125 0
0.1875 -0.8125 0
0.125 -0.75 0
0.1875 -0.75 0
0.1875 -0.8125 0
0.25 -0.8125 0
0.1875 -0.75 0
0.25 -0.75 0
-0.25 0 0
-0.1875 0 0
-0.25 0.0625 0
-0.1875 0.0625 0
-0.25 -0.875 0
-0.1875 -0.875 0
-0.25 -0.8125 0
-0.1875 -0.8125 0
-0.1875 -0.875 0
-0.125 -0.875 0
-0.1875 -0.8125 0
-0.125 -0.8125 0
[...]
  <PointData Scalars="scalars">
    <DataArray type="Float32" Name="U" format="ascii">
0 0 0 9.6473e-05 0 0 9.6473e-05 0.000195988 0 9.6473e-05 0 0.000202097 0 0.000202097 0 0.000322457 0.000384126 0.000524295 0.000446253 0.000600321 0 0 0.000419648 0.000616005 0 0 0.000616005 0.000850249 0 0 0.000189211 0.000279187 0 0 0.000279187 0.000419648 0.000545686 0.000630227 0.000617142 0.000665209 0 0.000161229 0 0.000203657 0.000161229 0.000322457 0.000203657 0.000384126 0 0.000203657 0 0.000237912 0.000203657 0.000384126 0.000237912 0.000446253 0.000467874 0.000573463 0.000545686 0.000630227 0.000573463 0.000726442 0.000630227 0.000729877 0 0 0.000850249 0.00107452 0.000600321 0.000683796 0.000660439 0.000738119 0 0.000237912 0 0.000265033 0 0.000265033 0 0.000284417 0.000683796 0.000689241 0.000738119 0.000711792 0 0.000284417 0 0.00028656 0.000284417 0.000527305 0.00028656 0.0005307 0 0.00028656 0 0.000268887 0.00028656 0.0005307 0.000268887 0.000497404 0 0.000268887 0 0.000228868 0.000268887 0.000497404 0.000228868 0.000423033 0 0.000228868 0 0.000167373 0.000228868 0.000423033 0.000167373 0.000309106 0 0.000167373 0 8.85402e-05 0.000167373 0.000309106 8.85402e-05 0.000164008 0 8.85402e-05 0 0 8.85402e-05 0.000164008 0 0 0.000195988 0.0002652 0.000292177 0.000386053 0.0002652 0.000372946 0.000386053 0.00053481 0 0 9.79941e-05 0.000134498 0 0 0.000134498 0.000189211 9.79941e-05 0.000134498 0.000195988 0.0002652 0.000715057 0.000555244 0.000664517 0.000511312 0.000555244 0.000303556 0.000511312 0.000278536 0.000303556 0 0.000278536 0 9.6473e-05 0.000146231 0.000149285 0.000218517 0.000146231 0.000195988 0.000218517 0.000292177 0.000149285 0.000218517 0.000202097 0.000293209 0.000218517 0.000292177 0.000293209 0.000384248 0.000555002 0.000605123 0.000405234 0.000440926 0.000171656 0 9.07136e-05 0 0.000166709 9.07136e-05 0 0 9.07136e-05 0 0 0 0.000405234 0.000440926 0.000214958 0.000233469 0.000164008 0.000214958 0 0 0.000214958 0.000233469 0 0 0.000713007 0.000664517 0.000605123 0.000561231 0.000664517 0.000511312 0.000561231 0.000432106 0.000605123 0.000561231 0.000440926 0.000409953 0.000561231 0.000432106 0.000409953 0.000315336 0.000511312 0.000278536 0.000432106 0.000235144 0.000278536 0 0.000235144 0 0.000432106 0.000235144 0.000315336 0.000171656 0.000235144 0 0.000171656 0 0.000440926 0.000409953 0.000233469 0.000217037 0.000233469 0.000217037 0 0 0.000217037 0.000166709 0 0 0.000202097 0.000293209 0.000262277 0.000368685 0.000293209 0.000384248 0.000368685 0.000467874 0.000262277 0.000368685 0.000322457 0.000446624 0.000368685 0.000467874 0.000446624 0.000545686 0.00121679 0.00123075 0.00180946 0.00183502 0.00123075 0.00119988 0.00183502 0.00178782 0.00142686 0.0016579 0.00173793 0.00202454 0.000782421 0.000548201 0.00116749 0.00081673 0.00115831 0.00140886 0.00128635 0.00156175 0.00201311 0.00234372 0.00222925 0.00259904 0.0018782 0.00222925 0.00200322 0.00237572 0.00222925 0.00259904 0.00237572 0.0027722 0.00170741 0.00205202 0.00168281 0.00201616 0.000932995 0.00112916 0.000972587 0.00116889 0.00112916 0.00137369 0.00116889 0.00141292 0.000972587 0.00116889 0.000979031 0.00116548 0.00116889 0.00141292 0.00116548 0.0013976 0.000957754 0.00111445 0.000498452 0.000575369 0.00111445 0.00129318 0.000575369 0.000665797 0.000498452 0.000575369 0 0 0.000575369 0.000665797 0 0 0.0016579 0.00188843 0.00202454 0.00230641 0.00202454 0.00230641 0.00234372 0.00267309 0.000979031 0.00116548 0.000953475 0.00111769 0.00121807 0.00146689 0.00140886 0.00169551 0.00107452 0.00115739 0.00159447 0.0017257 0.00159447 0.0017257 0.00209837 0.00226921 0.0017257 0.00180946 0.00226921 0.00238265 0 0 0.000610006 0.000617747 0 0 0.000617747 0.000601728 0.000752633 0.000833236 0.000447602 0.000446168 0.000695218 0.000709124 0.000572301 0.000508195 0.000572301 0.000508195 0.000464781 0.000321785 0.00053481 0.000640977 0.000601951 0.000718802 0.000718802 0.000866634 0.000777552 0.000932995 0.000372946 0.00045146 0.000453878 0.000549645 0.00045146 0.000548299 0.000549645 0.000669565 0.000453878 0.000549645 0.00053481 0.000640977 0.000549645 0.000669565 0.000640977 0.000776774 0 0 0.000488415 0.000392194 0 0 0.000392194 0.000274778 0.000488415 0.000392194 0.000974774 0.000782421 0.000392194 0.000274778 0.000782421 0.000548201 0.000548201 0.000281084 0.00081673 0.000421105 0.000281084 0 0.000421105 0 0.00081673 0.000421105 0.00107705 0.000553594 0.000421105 0 0.000553594 0 0.000548299 0.000673037 0.000669565 0.000818871 0.000669565 0.000818871 0.000776774 0.000947624 0.000818871 0.00100218 0.000947624 0.00115831 0.000726442 0.000833809 0.000728159 0.000827598 0.000833809 0.000979031 0.000827598 0.000953475 0.000728159 0.000827598 0.000729877 0.000801978 0.000464781 0.000321785 0.000387127 0.00022071 0.000387127 0.00022071 0.000347485 0.000183203 0.000322457 0.000384541 0.000353291 0.000421951 0.000384541 0.000446624 0.000421951 0.0004842 0.000353291 0.000421951 0.000384126 0.000454211 0.000421951 0.0004842 0.000454211 0.000524295 0.00119198 0.00140641 0.000999663 0.0011547 0.00140641 0.00166577 0.0011547 0.00135339 0.000999663 0.0011547 0.000752633 0.000833236 0.0011547 0.00135339 0.000833236 0.000957754 0.000279187 0.000349418 0.000417904 0.000513734 0.000349418 0.000419648 0.000513734 0.000626261 0.000417904 0.000513734 0.000548299 0.000673037 0.000513734 0.000626261 0.000673037 0.000821238 0.000446624 0.000496155 0.0004842 0.000536824 0.000496155 0.000545686 0.000536824 0.000581414 0.0004842 0.000536824 0.000524295 0.000575745 0.000536824 0.000581414 0.000575745 0.000617142 0.000524295 0.000575745 0.000562308 0.000612114 0.000575745 0.000617142 0.000612114 0.0006493 0.000562308 0.000612114 0.000600321 0.000642058 0.000612114 0.0006493 0.000642058 0.000683796 0 0 0.000601728 0.000558793 0 0 0.000558793 0.000488415 0.000601728 0.000558793 0.00119988 0.00111497 0.000558793 0.000488415 0.00111497 0.000974774 0.000419648 0.000517826 0.000626261 0.000763248 0.000517826 0.000616005 0.000763248 0.000916032 0.000626261 0.000763248 0.000821238 0.00100222 0.000763248 0.000916032 0.00100222 0.00120167 0.000660439 0.000699279 0.000679401 0.000728599 0.000699279 0.000738119 0.000728599 0.000752854 0.000679401 0.000728599 0.000696115 0.000742749 0.000743405 0.000762493 0.000726168 0.000742245 0.000726168 0.000742245 0.000692879 0.000713007 0.00107705 0.000553594 0.00132259 0.000680779 0.000553594 0 0.000680779 0 0.00153835 0.000792878 0.00171126 0.000882494 0.000792878 0 0.000882494 0 0.00171126 0.000882494 0.00183393 0.000945998 0.000882494 0 0.000945998 0 0.000616005 0.000733127 0.000916032 0.00108706 0.000733127 0.000850249 0.00108706 0.00126171 0.000916032 0.00108706 0.00120167 0.00142686 0.00108706 0.00126171 0.00142686 0.0016579 0.000619931 0.000556687 0.000597865 0.000509015 0.000189211 0.000234199 0.000284064 0.000343924 0.000234199 0.000279187 0.000343924 0.000417904 0.000284064 0.000343924 0.000372946 0.00045146 0.000343924 0.000417904 0.00045146 0.000548299 0.000850249 0.000962386 0.00126171 0.0014367 0.000962386 0.00107452 0.0014367 0.00159447 0.00126171 0.0014367 0.0016579 0.00188843 0.0014367 0.00159447 0.00188843 0.00209837 0.00164243 0.00178327 0.000847607 0.00091985 0.00178327 0.00188094 0.00091985 0.000970736 0.000847607 0.00091985 0 0 0.00091985 0.000970736 0 0 0.00234372 0.00267309 0.00259904 0.00296655 0.00068203 0.000687377 0.000650304 0.00061785 0.000687377 0.000695218 0.00061785 0.000572301 0.000650304 0.00061785 0.000619931 0.000556687 0.00061785 0.000572301 0.000556687 0.000464781 0.000630227 0.000680052 0.000647718 0.000679648 0.000680052 0.000729877 0.000679648 0.000709921 0.000647718 0.000679648 0.000665209 0.000675113 0.000679648 0.000709921 0.000675113 0.00068203 0.000617142 0.000641175 0.0006493 0.000667617 0.000641175 0.000665209 0.000667617 0.000676443 0.0006493 0.000667617 0.000683796 0.000686518 0.000667617 0.000676443 0.000686518 0.000689241 0.000665209 0.000675113 0.000676443 0.000668525 0.000675113 0.00068203 0.000668525 0.000650304 0.000676443 0.000668525 0.000689241 0.00066288 0.000668525 0.000650304 0.00066288 0.000619931 0.000384248 0.000435705 0.000426061 0.000479481 0.000435705 0.000494102 0.000479481 0.000538001 0.000426061 0.000479481 0.000467874 0.000520668 0.000479481 0.000538001 0.000520668 0.000573463 0.000762493 0.000751916 0.000742245 0.000731778 0.000751916 0.000715057 0.000731778 0.000689787 0.000742245 0.000731778 0.000713007 0.000688762 0.000731778 0.000689787 0.000688762 0.000664517 0.000696115 0.000742749 0.00070074 0.000749174 0.000742749 0.00076712 0.000749174 0.000769096 0.00070074 0.000749174 0.000698334 0.000743405 0.000749174 0.000769096 0.000743405 0.000762493 0.000494102 0.000568728 0.000538001 0.000611857 0.000568728 0.000659547 0.000611857 0.00069986 0.000538001 0.000611857 0.000573463 0.000649952 0.000611857 0.00069986 0.000649952 0.000726442 0 0 0.000537262 0.000581202 0 0 0.000581202 0.000610006 0.000537262 0.000581202 0.00107452 0.00115739 0.000581202 0.000610006 0.00115739 0.00121679 0.000652146 0.000692879 0.000606853 0.000647264 0.000692879 0.000713007 0.000647264 0.000659065 0.000606853 0.000647264 0.000555002 0.000580063 0.000647264 0.000659065 0.000580063 0.000605123 0.00218871 0.00191476 0.00267714 0.00234266 0.000729877 0.000801978 0.000709921 0.000751207 0.000801978 0.000895361 0.000751207 0.000804346 0.000709921 0.000751207 0.00068203 0.000687377 0.000751207 0.000804346 0.000687377 0.000695218 0.000446253 0.000523287 0.000470451 0.000557791 0.000523287 0.000600321 0.000557791 0.00063038 0.000470451 0.000557791 0.000494247 0.000585061 0.000557791 0.00063038 0.000585061 0.000660439 0.000347485 0.000183203 0.000327502 0.000168798 0.000183203 0 0.000168798 0 0.000327502 0.000168798 0.00031627 0.000161682 0.000168798 0 0.000161682 0 0.000494247 0.000585061 0.000512557 0.00060516 0.000585061 0.000660439 0.00060516 0.000679401 0.000512557 0.00060516 0.000527305 0.000620703 0.00060516 0.000679401 0.000620703 0.000696115 0.00188561 0.00132259 0.00219207 0.00153835 0.000237912 0.000342083 0.000251473 0.000365713 0.000342083 0.000446253 0.000365713 0.000470451 0.000251473 0.000365713 0.000265033 0.000384818 0.000365713 0.000470451 0.000384818 0.000494247 0.00076712 0.000756282 0.000769096 0.000760897 0.000769096 0.000760897 0.000762493 0.000751916 0.000265033 0.000384818 0.000274725 0.000398848 0.000384818 0.000494247 0.000398848 0.000512557 0.000274725 0.000398848 0.000284417 0.000405861 0.000398848 0.000512557 0.000405861 0.000527305 0.000527305 0.000620703 0.000529003 0.000625779 0.000620703 0.000696115 0.000625779 0.00070074 0.000529003 0.000625779 0.0005307 0.000623369 0.000625779 0.00070074 0.000623369 0.000698334 0.0005307 0.000623369 0.000514052 0.00060744 0.000623369 0.000698334 0.00060744 0.000680055 0.000514052 0.00060744 0.000497404 0.000583149 0.00060744 0.000680055 0.000583149 0.000652146 0.000689241 0.00066288 0.000700517 0.000659204 0.00066288 0.000619931 0.000659204 0.000597865 0.000700517 0.000659204 0.000711792 0.00065713 0.000659204 0.000597865 0.00065713 0.000583271 0.000738119 0.000724956 0.000752854 0.000746235 0.000724956 0.000711792 0.000746235 0.000717926 0.000752854 0.000746235 0.00076712 0.000756282 0.000746235 0.000717926 0.000756282 0.000724207 0.000711792 0.00065713 0.000717926 0.000656426 0.00065713 0.000583271 0.000656426 0.000574903 0.000717926 0.000656426 0.000724207 0.000656101 0.000656426 0.000574903 0.000656101 0.000568713 0.000583271 0.000477001 0.000574903 0.000461165 0.000477001 0.000347485 0.000461165 0.000327502 0.000574903 0.000461165 0.000568713 0.000450755 0.000461165 0.000327502 0.000450755 0.00031627 0 0 0.000274778 0.000141478 0 0 0.000141478 0 0.000274778 0.000141478 0.000548201 0.000281084 0.000141478 0 0.000281084 0 0.000292177 0.000339115 0.000338212 0.000387784 0.000339115 0.000386053 0.000387784 0.00044373 0.000338212 0.000387784 0.000384248 0.000435705 0.000387784 0.00044373 0.000435705 0.000494102 0.000386053 0.000460431 0.00044373 0.000515455 0.000460431 0.00053481 0.000515455 0.000601951 0.00044373 0.000515455 0.000494102 0.000568728 0.000515455 0.000601951 0.000568728 0.000659547 0.000134498 0.000161854 0.000199849 0.000239206 0.000161854 0.000189211 0.000239206 0.000284064 0.000199849 0.000239206 0.0002652 0.000319073 0.000239206 0.000284064 0.000319073 0.000372946 0.000724207 0.000656101 0.00072148 0.00065143 0.000656101 0.000568713 0.00065143 0.000561685 0.00072148 0.00065143 0.000715057 0.00063515 0.00065143 0.000561685 0.00063515 0.000555244 0.000568713 0.000450755 0.000561685 0.000442987 0.000450755 0.00031627 0.000442987 0.000309272 0.000561685 0.000442987 0.000555244 0.0004294 0.000442987 0.000309272 0.0004294 0.000303556 0.00031627 0.000161682 0.000309272 0.000157664 0.000161682 0 0.000157664 0 0.000309272 0.000157664 0.000303556 0.000151778 0.000157664 0 0.000151778 0 0.000665797 0.000758925 0 0 0.000497404 0.000583149 0.000460219 0.000544176 0.000583149 0.000652146 0.000544176 0.000606853 0.000460219 0.000544176 0.000423033 0.000495837 0.000544176 0.000606853 0.000495837 0.000555002 0.000423033 0.000495837 0.00036607 0.000432619 0.000495837 0.000555002 0.000432619 0.000480118 0.00036607 0.000432619 0.000309106 0.000361809 0.000432619 0.000480118 0.000361809 0.000405234 0.000315336 0.000243496 0.000242338 0.000190094 0.000243496 0.000171656 0.000190094 0.000131185 0.000242338 0.000190094 0.000166709 0.000128711 0.000190094 0.000131185 0.000128711 9.07136e-05 0.000309106 0.000361809 0.000236557 0.00027949 0.000361809 0.000405234 0.00027949 0.000310096 0.000236557 0.00027949 0.000164008 0.000189483 0.00027949 0.000310096 0.000189483 0.000214958 0.000409953 0.000362645 0.000313495 0.00028322 0.000362645 0.000315336 0.00028322 0.000242338 0.000313495 0.00028322 0.000217037 0.000191873 0.00028322 0.000242338 0.000191873 0.000166709 0.00362568 0.00363812 0.0038053 0.00381246 0.0038053 0.00381246 0.00395112 0.00396409 0.00390381 0.00395112 0.0040123 0.00406448 0.00395112 0.00396409 0.00406448 0.00407832 0.00166577 0.00181267 0.00150958 0.00164233 0.00181267 0.00196259 0.00164233 0.00177606 0.00150958 0.00164233 0.00135339 0.00146781 0.00164233 0.00177606 0.00146781 0.0015858 0.00135339 0.00146781 0.00115557 0.00125418 0.00146781 0.0015858 0.00125418 0.00135359 0.00115557 0.00125418 0.000957754 0.0010361 0.00125418 0.00135359 0.0010361 0.00111445 0.00352319 0.00367736 0.00358227 0.00374199 0.00367736 0.00381691 0.00374199 0.00388721 0.00358227 0.00374199 0.00360855 0.00377026 0.00374199 0.00388721 0.00377026 0.00391183 0.00381691 0.00392843 0.00388721 0.00399715 0.00392843 0.0040123 0.00399715 0.00408771 0.00388721 0.00399715 0.00391183 0.00403143 0.00399715 0.00408771 0.00403143 0.00411867 0.00192686 0.00207283 0.00171255 0.00183904 0.00317559 0.00336318 0.00308874 0.0032727 0.00308874 0.0032727 0.00296438 0.00314038 0.0015858 0.00171255 0.00135359 0.00146273 0.00171255 0.00183904 0.00146273 0.00157101 0.00135359 0.00146273 0.00111445 0.00120382 0.00146273 0.00157101 0.00120382 0.00129318 0.00296438 0.00314038 0.00280155 0.00296809 0.00280155 0.00296809 0.00260097 0.00275571 0.00180946 0.00182224 0.00209606 0.00211516 0.00182224 0.00183502 0.00211516 0.00212761 0.00209606 0.00211516 0.00238265 0.00240334 0.00211516 0.00212761 0.00240334 0.00241693 0.00183502 0.00181142 0.00212761 0.00210248 0.00181142 0.00178782 0.00210248 0.00207378 0.00212761 0.00210248 0.00241693 0.00238846 0.00210248 0.00207378 0.00238846 0.00235639 0.00120167 0.00131426 0.00133553 0.001459 0.00131426 0.00142686 0.001459 0.00158239 0.00133553 0.001459 0.00146689 0.00160144 0.001459 0.00158239 0.00160144 0.00173793 0.00146689 0.00160144 0.0015812 0.00172874 0.00160144 0.00173793 0.00172874 0.001878 0.0015812 0.00172874 0.00169551 0.00185298 0.00172874 0.001878 0.00185298 0.00201311 0.00200322 0.00218947 0.00203146 0.00222326 0.00218947 0.00237572 0.00222326 0.00240935 0.00203146 0.00222326 0.00205202 0.00224203 0.00317761 0.0031211 0.00340643 0.00334436 0.00173793 0.00188123 0.001878 0.00203336 0.00188123 0.00202454 0.00203336 0.00218413 0.001878 0.00203336 0.00201311 0.00217842 0.00203336 0.00218413 0.00217842 0.00234372 0.00119988 0.00115742 0.00149385 0.00144416 0.00115742 0.00111497 0.00144416 0.00138892 0.00149385 0.00144416 0.00178782 0.00172759 0.00144416 0.00138892 0.00172759 0.00166123 0.00111497 0.00104487 0.00138892 0.0013031 0.00104487 0.000974774 0.0013031 0.00121433 0.00138892 0.0013031 0.00166123 0.00155878 0.0013031 0.00121433 0.00155878 0.00145265 0.00287891 0.00279344 0.0031211 0.00302951 0.00279344 0.00267714 0.00302951 0.00290169 0.0031211 0.00302951 0.00334436 0.00324685 0.00267714 0.0025099 0.00290169 0.00273822 0.0025099 0.00234266 0.00273822 0.00253924 0.00178782 0.00172759 0.00207378 0.00200356 0.00172759 0.00166123 0.00200356 0.00192666 0.00207378 0.00200356 0.00235639 0.00227554 0.00200356 0.00192666 0.00227554 0.00218871 0.00166123 0.00155878 0.00192666 0.00180699 0.00155878 0.00145265 0.00180699 0.00168507 0.00192666 0.00180699 0.00218871 0.00205173 0.00180699 0.00168507 0.00205173 0.00191476 0.00234266 0.00212645 0.00253924 0.00230697 0.00212645 0.00188561 0.00230697 0.00203884 0.00230697 0.00203884 0.00247407 0.00219207 0.000974774 0.000878597 0.00121433 0.00109701 0.000878597 0.000782421 0.00109701 0.000974954 0.00121433 0.00109701 0.00145265 0.00131258 0.00109701 0.000974954 0.00131258 0.00116749 0.00145265 0.00131258 0.00168507 0.00152274 0.00131258 0.00116749 0.00152274 0.00135507 0.00168507 0.00152274 0.00191476 0.00172982 0.00152274 0.00135507 0.00172982 0.00154021 0.00260097 0.00275571 0.0023651 0.0025062 0.0023651 0.0025062 0.00209945 0.00221921 0.00116749 0.000992109 0.00135507 0.00115305 0.000992109 0.00081673 0.00115305 0.000946889 0.00135507 0.00115305 0.00154021 0.00131134 0.00115305 0.000946889 0.00131134 0.00107705 0.0040123 0.00406448 0.00408771 0.00413366 0.00406448 0.00407832 0.00413366 0.004155 0.00408771 0.00413366 0.00411867 0.00417291 0.00413366 0.004155 0.00417291 0.00418864 0.00140886 0.00155218 0.00148531 0.00163707 0.00155218 0.00169551 0.00163707 0.00179006 0.00148531 0.00163707 0.00156175 0.00171797 0.00163707 0.00179006 0.00171797 0.0018782 0.00209945 0.00221921 0.00179055 0.0019029 0.00221921 0.0023389 0.0019029 0.00200471 0.00179055 0.0019029 0.00147477 0.00155851 0.0019029 0.00200471 0.00155851 0.00164243 0.00412817 0.00405537 0.00415933 0.00408834 0.00416043 0.00417373 0.00409832 0.00411386 0.00330795 0.00300493 0.00333534 0.00302662 0.00128635 0.00142405 0.00133264 0.00147366 0.00142405 0.00156175 0.00147366 0.00161544 0.00133264 0.00147366 0.00137369 0.00151767 0.00147366 0.00161544 0.00151767 0.00166489 0.00333534 0.00302662 0.00332428 0.00301771 0.00302662 0.00267732 0.00301771 0.00266948 0.00156175 0.00171797 0.00161544 0.00177671 0.00171797 0.0018782 0.00177671 0.00194071 0.00161544 0.00177671 0.00166489 0.00183305 0.00177671 0.00194071 0.00183305 0.00200322 0.00169551 0.00185298 0.00179006 0.00195635 0.00185298 0.00201311 0.00195635 0.00212118 0.00179006 0.00195635 0.0018782 0.00205373 0.00195635 0.00212118 0.00205373 0.00222925 0.00183393 0.00138996 0.0018646 0.00141857 0.00138996 0.000945998 0.00141857 0.000958254 0.000945998 0.000472999 0.000958254 0.000483529 0.000472999 0 0.000483529 0 0.000483529 0 0.000484458 0 0.000484458 0 0.000484664 0 0.000484664 0 0.000477823 0 0.000477823 0 0.000465686 0 0.000465686 0 0.000446618 0 0.00340643 0.00334436 0.00361089 0.00354632 0.00363812 0.00361089 0.00381246 0.00378947 0.00361089 0.00354632 0.00378947 0.0037234 0.000446618 0 0.000423104 0 0.000423104 0 0.00039271 0 0.00331867 0.00336547 0.00301696 0.00306073 0.00306073 0.0030721 0.00271294 0.00271638 0.00338042 0.00335431 0.0030721 0.00304818 0.0030721 0.00304818 0.00271638 0.00269894 0.00381246 0.00378947 0.00396409 0.00393535 0.00378947 0.0037234 0.00393535 0.00386751 0.00396409 0.00393535 0.00407832 0.00405311 0.00393535 0.00386751 0.00405311 0.00398374 0.00188094 0.00190187 0.00142584 0.00144744 0.00142584 0.00144744 0.000970736 0.000977954 0.00137369 0.00151767 0.00139331 0.0015392