# vtk DataFile Version 3.0
#This file was generated by the deal.II library on 2021/4/23 at 0:45:44
ASCII
DATASET UNSTRUCTURED_GRID

FIELD FieldData 2
CYCLE 1 1 int
136
TIME 1 1 double
0.272
POINTS 6924 double
-1 -1 0
-0.75 -1 0
-1 -0.75 0
-0.75 -0.75 0
-0.75 -1 0
-0.5 -1 0
-0.75 -0.75 0
-0.5 -0.75 0
-1 -0.75 0
-0.75 -0.75 0
-1 -0.5 0
-0.75 -0.5 0
-0.75 -0.75 0
-0.5 -0.75 0
-0.75 -0.5 0
-0.5 -0.5 0
-1 0.75 0
-0.75 0.75 0
-1 1 0
-0.75 1 0
-0.25 -0.375 0
-0.125 -0.375 0
-0.25 -0.25 0
-0.125 -0.25 0
-0.75 -0.25 0
-0.625 -0.25 0
-0.75 -0.125 0
-0.625 -0.125 0
-0.625 -0.25 0
-0.5 -0.25 0
-0.625 -0.125 0
-0.5 -0.125 0
-0.625 -0.125 0
-0.5 -0.125 0
-0.625 0 0
-0.5 0 0
-0.5 -0.25 0
-0.375 -0.25 0
-0.5 -0.125 0
-0.375 -0.125 0
-0.375 -0.25 0
-0.25 -0.25 0
-0.375 -0.125 0
-0.25 -0.125 0
-0.5 -0.125 0
-0.375 -0.125 0
-0.5 0 0
-0.375 0 0
-0.375 -0.125 0
-0.25 -0.125 0
-0.375 0 0
-0.25 0 0
-1 0 0
-0.875 0 0
-1 0.125 0
-0.875 0.125 0
-0.875 0 0
-0.75 0 0
-0.875 0.125 0
-0.75 0.125 0
-1 0.125 0
-0.875 0.125 0
-1 0.25 0
-0.875 0.25 0
-0.875 0.125 0
-0.75 0.125 0
-0.875 0.25 0
-0.75 0.25 0
-0.75 0 0
-0.625 0 0
-0.75 0.125 0
-0.625 0.125 0
-0.25 -1 0
-0.125 -1 0
-0.25 -0.875 0
-0.125 -0.875 0
-0.125 -1 0
0 -1 0
-0.125 -0.875 0
0 -0.875 0
-0.125 -0.875 0
0 -0.875 0
-0.125 -0.75 0
0 -0.75 0
-0.5 -0.75 0
-0.375 -0.75 0
-0.5 -0.625 0
-0.375 -0.625 0
-0.375 -0.75 0
-0.25 -0.75 0
-0.375 -0.625 0
-0.25 -0.625 0
-0.5 -0.625 0
-0.375 -0.625 0
-0.5 -0.5 0
-0.375 -0.5 0
-0.375 -0.625 0
-0.25 -0.625 0
-0.375 -0.5 0
-0.25 -0.5 0
0.375 -1 0
0.5 -1 0
0.375 -0.875 0
0.5 -0.875 0
-0.25 -0.125 0
-0.125 -0.125 0
-0.25 0 0
-0.125 0 0
-1 0.25 0
-0.875 0.25 0
-1 0.375 0
-0.875 0.375 0
-1 0.375 0
-0.875 0.375 0
-1 0.5 0
-0.875 0.5 0
-0.5 -0.5 0
-0.375 -0.5 0
-0.5 -0.375 0
-0.375 -0.375 0
-0.375 -0.5 0
-0.25 -0.5 0
-0.375 -0.375 0
-0.25 -0.375 0
-0.5 -0.375 0
-0.375 -0.375 0
-0.5 -0.25 0
-0.375 -0.25 0
-0.375 -0.375 0
-0.25 -0.375 0
-0.375 -0.25 0
-0.25 -0.25 0
-0.75 0.25 0
-0.625 0.25 0
-0.75 0.375 0
-0.625 0.375 0
-0.625 0.25 0
-0.5 0.25 0
-0.625 0.375 0
-0.5 0.375 0
-0.75 0.375 0
-0.625 0.375 0
-0.75 0.5 0
-0.625 0.5 0
-0.625 0.375 0
-0.5 0.375 0
-0.625 0.5 0
-0.5 0.5 0
-0.25 0.125 0
-0.125 0.125 0
-0.25 0.25 0
-0.125 0.25 0
-0.125 0.125 0
0 0.125 0
-0.125 0.25 0
0 0.25 0
0 -1 0
0.125 -1 0
0 -0.875 0
0.125 -0.875 0
0.125 -1 0
0.25 -1 0
0.125 -0.875 0
0.25 -0.875 0
0.125 -0.875 0
0.25 -0.875 0
0.125 -0.75 0
0.25 -0.75 0
-1 0.5 0
-0.875 0.5 0
-1 0.625 0
-0.875 0.625 0
-1 0.625 0
-0.875 0.625 0
-1 0.75 0
-0.875 0.75 0
-0.875 0.625 0
-0.75 0.625 0
-0.875 0.75 0
-0.75 0.75 0
-0.25 0.25 0
-0.125 0.25 0
-0.25 0.375 0
-0.125 0.375 0
-0.125 0.25 0
0 0.25 0
-0.125 0.375 0
0 0.375 0
-0.25 0.375 0
-0.125 0.375 0
-0.25 0.5 0
-0.125 0.5 0
-0.125 0.375 0
0 0.375 0
-0.125 0.5 0
0 0.5 0
-0.5 -1 0
-0.375 -1 0
-0.5 -0.875 0
-0.375 -0.875 0
-0.375 -1 0
-0.25 -1 0
-0.375 -0.875 0
-0.25 -0.875 0
-0.5 -0.875 0
-0.375 -0.875 0
-0.5 -0.75 0
-0.375 -0.75 0
-0.375 -0.875 0
-0.25 -0.875 0
-0.375 -0.75 0
-0.25 -0.75 0
-1 -0.5 0
-0.875 -0.5 0
-1 -0.375 0
-0.875 -0.375 0
-0.875 -0.5 0
-0.75 -0.5 0
-0.875 -0.375 0
-0.75 -0.375 0
-1 -0.375 0
-0.875 -0.375 0
-1 -0.25 0
-0.875 -0.25 0
-0.875 -0.375 0
-0.75 -0.375 0
-0.875 -0.25 0
-0.75 -0.25 0
-0.75 -0.5 0
-0.625 -0.5 0
-0.75 -0.375 0
-0.625 -0.375 0
-0.625 -0.5 0
-0.5 -0.5 0
-0.625 -0.375 0
-0.5 -0.375 0
-0.75 -0.375 0
-0.625 -0.375 0
-0.75 -0.25 0
-0.625 -0.25 0
-0.625 -0.375 0
-0.5 -0.375 0
-0.625 -0.25 0
-0.5 -0.25 0
-1 -0.25 0
-0.875 -0.25 0
-1 -0.125 0
-0.875 -0.125 0
-0.875 -0.25 0
-0.75 -0.25 0
-0.875 -0.125 0
-0.75 -0.125 0
-1 -0.125 0
-0.875 -0.125 0
-1 0 0
-0.875 0 0
-0.875 -0.125 0
-0.75 -0.125 0
-0.875 0 0
-0.75 0 0
-0.25 0.75 0
-0.125 0.75 0
-0.25 0.875 0
-0.125 0.875 0
-0.125 0.75 0
0 0.75 0
-0.125 0.875 0
0 0.875 0
-0.25 0.875 0
-0.125 0.875 0
-0.25 1 0
-0.125 1 0
-0.125 0.875 0
0 0.875 0
-0.125 1 0
0 1 0
-0.5 0.25 0
-0.375 0.25 0
-0.5 0.375 0
-0.375 0.375 0
-0.375 0.25 0
-0.25 0.25 0
-0.375 0.375 0
-0.25 0.375 0
-0.5 0.375 0
-0.375 0.375 0
-0.5 0.5 0
-0.375 0.5 0
-0.375 0.375 0
-0.25 0.375 0
-0.375 0.5 0
-0.25 0.5 0
-0.75 0.5 0
-0.625 0.5 0
-0.75 0.625 0
-0.625 0.625 0
-0.625 0.5 0
-0.5 0.5 0
-0.625 0.625 0
-0.5 0.625 0
-0.75 0.625 0
-0.625 0.625 0
-0.75 0.75 0
-0.625 0.75 0
-0.625 0.625 0
-0.5 0.625 0
-0.625 0.75 0
-0.5 0.75 0
-0.75 0.75 0
-0.625 0.75 0
-0.75 0.875 0
-0.625 0.875 0
-0.625 0.75 0
-0.5 0.75 0
-0.625 0.875 0
-0.5 0.875 0
-0.75 0.875 0
-0.625 0.875 0
-0.75 1 0
-0.625 1 0
-0.625 0.875 0
-0.5 0.875 0
-0.625 1 0
-0.5 1 0
-0.5 0.5 0
-0.375 0.5 0
-0.5 0.625 0
-0.375 0.625 0
-0.375 0.5 0
-0.25 0.5 0
-0.375 0.625 0
-0.25 0.625 0
-0.5 0.625 0
-0.375 0.625 0
-0.5 0.75 0
-0.375 0.75 0
-0.375 0.625 0
-0.25 0.625 0
-0.375 0.75 0
-0.25 0.75 0
-0.25 0.5 0
-0.125 0.5 0
-0.25 0.625 0
-0.125 0.625 0
-0.125 0.5 0
0 0.5 0
-0.125 0.625 0
0 0.625 0
-0.125 0.625 0
0 0.625 0
-0.125 0.75 0
0 0.75 0
-0.5 0.75 0
-0.375 0.75 0
-0.5 0.875 0
-0.375 0.875 0
-0.5 0.875 0
-0.375 0.875 0
-0.5 1 0
-0.375 1 0
-0.375 0.875 0
-0.25 0.875 0
-0.375 1 0
-0.25 1 0
0.75 -0.875 0
0.8125 -0.875 0
0.75 -0.8125 0
0.8125 -0.8125 0
0.8125 -0.875 0
0.875 -0.875 0
0.8125 -0.8125 0
0.875 -0.8125 0
0.375 -0.75 0
0.4375 -0.75 0
0.375 -0.6875 0
0.4375 -0.6875 0
-0.125 -0.4375 0
-0.0625 -0.4375 0
-0.125 -0.375 0
-0.0625 -0.375 0
-0.0625 -0.4375 0
0 -0.4375 0
-0.0625 -0.375 0
0 -0.375 0
0.25 -0.625 0
0.3125 -0.625 0
0.25 -0.5625 0
0.3125 -0.5625 0
0.4375 -0.625 0
0.5 -0.625 0
0.4375 -0.5625 0
0.5 -0.5625 0
0.375 -0.5625 0
0.4375 -0.5625 0
0.375 -0.5 0
0.4375 -0.5 0
0.4375 -0.5625 0
0.5 -0.5625 0
0.4375 -0.5 0
0.5 -0.5 0
0.5 -0.875 0
0.5625 -0.875 0
0.5 -0.8125 0
0.5625 -0.8125 0
0.5625 -0.875 0
0.625 -0.875 0
0.5625 -0.8125 0
0.625 -0.8125 0
0.625 -0.875 0
0.6875 -0.875 0
0.625 -0.8125 0
0.6875 -0.8125 0
0.6875 -0.875 0
0.75 -0.875 0
0.6875 -0.8125 0
0.75 -0.8125 0
0.9375 -0.75 0
1 -0.75 0
0.9375 -0.6875 0
1 -0.6875 0
0.1875 -0.25 0
0.25 -0.25 0
0.1875 -0.1875 0
0.25 -0.1875 0
0.125 -0.1875 0
0.1875 -0.1875 0
0.125 -0.125 0
0.1875 -0.125 0
0.25 -0.0625 0
0.3125 -0.0625 0
0.25 0 0
0.3125 0 0
0.125 -0.5625 0
0.1875 -0.5625 0
0.125 -0.5 0
0.1875 -0.5 0
0.1875 -0.5625 0
0.25 -0.5625 0
0.1875 -0.5 0
0.25 -0.5 0
0.0625 -0.4375 0
0.125 -0.4375 0
0.0625 -0.375 0
0.125 -0.375 0
0.125 -0.5 0
0.1875 -0.5 0
0.125 -0.4375 0
0.1875 -0.4375 0
0.125 -0.4375 0
0.1875 -0.4375 0
0.125 -0.375 0
0.1875 -0.375 0
0.1875 -0.4375 0
0.25 -0.4375 0
0.1875 -0.375 0
0.25 -0.375 0
0.75 -1 0
0.8125 -1 0
0.75 -0.9375 0
0.8125 -0.9375 0
0.8125 -1 0
0.875 -1 0
0.8125 -0.9375 0
0.875 -0.9375 0
0.9375 -0.875 0
1 -0.875 0
0.9375 -0.8125 0
1 -0.8125 0
0.875 -0.8125 0
0.9375 -0.8125 0
0.875 -0.75 0
0.9375 -0.75 0
0.9375 -0.8125 0
1 -0.8125 0
0.9375 -0.75 0
1 -0.75 0
-0.125 -0.375 0
-0.0625 -0.375 0
-0.125 -0.3125 0
-0.0625 -0.3125 0
-0.0625 -0.375 0
0 -0.375 0
-0.0625 -0.3125 0
0 -0.3125 0
-0.125 -0.3125 0
-0.0625 -0.3125 0
-0.125 -0.25 0
-0.0625 -0.25 0
-0.0625 -0.3125 0
0 -0.3125 0
-0.0625 -0.25 0
0 -0.25 0
0.375 -0.875 0
0.4375 -0.875 0
0.375 -0.8125 0
0.4375 -0.8125 0
0.4375 -0.875 0
0.5 -0.875 0
0.4375 -0.8125 0
0.5 -0.8125 0
0.375 -0.8125 0
0.4375 -0.8125 0
0.375 -0.75 0
0.4375 -0.75 0
0.4375 -0.8125 0
0.5 -0.8125 0
0.4375 -0.75 0
0.5 -0.75 0
0.25 -0.75 0
0.3125 -0.75 0
0.25 -0.6875 0
0.3125 -0.6875 0
0.3125 -0.75 0
0.375 -0.75 0
0.3125 -0.6875 0
0.375 -0.6875 0
0.25 -0.6875 0
0.3125 -0.6875 0
0.25 -0.625 0
0.3125 -0.625 0
0.3125 -0.6875 0
0.375 -0.6875 0
0.3125 -0.625 0
0.375 -0.625 0
0.5 -1 0
0.5625 -1 0
0.5 -0.9375 0
0.5625 -0.9375 0
0.5625 -1 0
0.625 -1 0
0.5625 -0.9375 0
0.625 -0.9375 0
0.5 -0.9375 0
0.5625 -0.9375 0
0.5 -0.875 0
0.5625 -0.875 0
0.625 -1 0
0.6875 -1 0
0.625 -0.9375 0
0.6875 -0.9375 0
0.6875 -1 0
0.75 -1 0
0.6875 -0.9375 0
0.75 -0.9375 0
0.0625 -0.1875 0
0.125 -0.1875 0
0.0625 -0.125 0
0.125 -0.125 0
0.125 -0.125 0
0.1875 -0.125 0
0.125 -0.0625 0
0.1875 -0.0625 0
0.1875 -0.125 0
0.25 -0.125 0
0.1875 -0.0625 0
0.25 -0.0625 0
0.125 -0.0625 0
0.1875 -0.0625 0
0.125 0 0
0.1875 0 0
0.1875 -0.0625 0
0.25 -0.0625 0
0.1875 0 0
0.25 0 0
-0.25 -0.75 0
-0.1875 -0.75 0
-0.25 -0.6875 0
-0.1875 -0.6875 0
-0.1875 -0.75 0
-0.125 -0.75 0
-0.1875 -0.6875 0
-0.125 -0.6875 0
-0.25 -0.6875 0
-0.1875 -0.6875 0
-0.25 -0.625 0
-0.1875 -0.625 0
-0.1875 -0.6875 0
-0.125 -0.6875 0
-0.1875 -0.625 0
-0.125 -0.625 0
-0.0625 -0.25 0
0 -0.25 0
-0.0625 -0.1875 0
0 -0.1875 0
-0.125 -0.1875 0
-0.0625 -0.1875 0
-0.125 -0.125 0
-0.0625 -0.125 0
-0.125 -0.125 0
-0.0625 -0.125 0
-0.125 -0.0625 0
-0.0625 -0.0625 0
-0.125 -0.0625 0
-0.0625 -0.0625 0
-0.125 0 0
-0.0625 0 0
-0.25 -0.625 0
-0.1875 -0.625 0
-0.25 -0.5625 0
-0.1875 -0.5625 0
-0.25 -0.5625 0
-0.1875 -0.5625 0
-0.25 -0.5 0
-0.1875 -0.5 0
-0.25 -0.5 0
-0.1875 -0.5 0
-0.25 -0.4375 0
-0.1875 -0.4375 0
-0.25 -0.4375 0
-0.1875 -0.4375 0
-0.25 -0.375 0
-0.1875 -0.375 0
-0.1875 -0.4375 0
-0.125 -0.4375 0
-0.1875 -0.375 0
-0.125 -0.375 0
0.0625 -0.75 0
0.125 -0.75 0
0.0625 -0.6875 0
0.125 -0.6875 0
0.0625 -0.6875 0
0.125 -0.6875 0
0.0625 -0.625 0
0.125 -0.625 0
0.125 -0.75 0
0.1875 -0.75 0
0.125 -0.6875 0
0.1875 -0.6875 0
0.1875 -0.75 0
0.25 -0.75 0
0.1875 -0.6875 0
0.25 -0.6875 0
0.125 -0.6875 0
0.1875 -0.6875 0
0.125 -0.625 0
0.1875 -0.625 0
0.1875 -0.6875 0
0.25 -0.6875 0
0.1875 -0.625 0
0.25 -0.625 0
-0.125 -0.75 0
-0.0625 -0.75 0
-0.125 -0.6875 0
-0.0625 -0.6875 0
-0.0625 -0.75 0
0 -0.75 0
-0.0625 -0.6875 0
0 -0.6875 0
-0.125 -0.6875 0
-0.0625 -0.6875 0
-0.125 -0.625 0
-0.0625 -0.625 0
-0.0625 -0.6875 0
0 -0.6875 0
-0.0625 -0.625 0
0 -0.625 0
-0.125 0.0625 0
-0.0625 0.0625 0
-0.125 0.125 0
-0.0625 0.125 0
-0.0625 0.0625 0
0 0.0625 0
-0.0625 0.125 0
0 0.125 0
-0.125 -0.625 0
-0.0625 -0.625 0
-0.125 -0.5625 0
-0.0625 -0.5625 0
-0.0625 -0.625 0
0 -0.625 0
-0.0625 -0.5625 0
0 -0.5625 0
-0.125 -0.5625 0
-0.0625 -0.5625 0
-0.125 -0.5 0
-0.0625 -0.5 0
-0.0625 -0.5625 0
0 -0.5625 0
-0.0625 -0.5 0
0 -0.5 0
0.0625 -0.0625 0
0.125 -0.0625 0
0.0625 0 0
0.125 0 0
-0.75 -0.125 0
-0.6875 -0.125 0
-0.75 -0.0625 0
-0.6875 -0.0625 0
-0.6875 -0.125 0
-0.625 -0.125 0
[...]
POINT_DATA 6924
SCALARS U double 1
LOOKUP_TABLE default
0 0 0 7.08617e-05 0 0 7.08617e-05 0.00013632 0 7.08617e-05 0 0.000168239 7.08617e-05 0.00013632 0.000168239 0.000297685 0 0.000425189 0 0 0.000553244 0.000772751 0.000597954 0.000741663 0.000306514 0.000416124 0.000394103 0.000531347 0.000416124 0.000495275 0.000531347 0.000610963 0.000531347 0.000610963 0.000653799 0.000733705 0.000495275 0.000544207 0.000610963 0.000630205 0.000544207 0.000597954 0.000630205 0.000612169 0.000610963 0.000630205 0.000733705 0.000720969 0.000630205 0.000612169 0.000720969 0.000625618 0 0.000253754 0 0.00030554 0.000253754 0.000486867 0.00030554 0.000575839 0 0.00030554 0 0.000344158 0.00030554 0.000575839 0.000344158 0.000642295 0.000486867 0.000653799 0.000575839 0.000761944 0 0 0.000122756 0.000186852 0 0 0.000186852 0.000304136 0.000186852 0.000304136 0.000376944 0.000618524 0.00013632 0.000180956 0.000217002 0.000270948 0.000180956 0.000249341 0.000270948 0.000368255 0.000217002 0.000270948 0.000297685 0.000364295 0.000270948 0.000368255 0.000364295 0.000475191 0 0 0.00111613 0.00138723 0.000612169 0.000602584 0.000625618 0.000445047 0 0.000344158 0 0.000357387 0 0.000357387 0 0.000346042 0.000297685 0.000364295 0.000393036 0.000457078 0.000364295 0.000475191 0.000457078 0.000553244 0.000393036 0.000457078 0.000495275 0.000544207 0.000457078 0.000553244 0.000544207 0.000597954 0.000642295 0.00085478 0.000670981 0.000893101 0.00085478 0.00094167 0.000893101 0.000980477 0.000670981 0.000893101 0.000649065 0.000862618 0.000893101 0.000980477 0.000862618 0.00094619 0.000648975 0.000380439 0.000691882 0.000380798 0.000380439 0 0.000380798 0 0 0 0.000304136 0.0005022 0 0 0.0005022 0.000784991 0.0005022 0.000784991 0.00102901 0.00162448 0 0.000346042 0 0.000302182 0 0.000302182 0 0.000212594 0.000302182 0.000566154 0.000212594 0.000425189 0.000691882 0.000380798 0.000712159 0.000389214 0.000380798 0 0.000389214 0 0.000712159 0.000389214 0.000684985 0.000374577 0.000389214 0 0.000374577 0 0 0 6.81598e-05 9.11186e-05 0 0 9.11186e-05 0.000122756 6.81598e-05 9.11186e-05 0.00013632 0.000180956 9.11186e-05 0.000122756 0.000180956 0.000249341 0 8.41196e-05 0 0.000120751 8.41196e-05 0.000168239 0.000120751 0.000232061 0 0.000120751 0 0.000159504 0.000120751 0.000232061 0.000159504 0.000306514 0.000168239 0.000232962 0.000232061 0.000320001 0.000232962 0.000297685 0.000320001 0.000393036 0.000232061 0.000320001 0.000306514 0.000416124 0.000320001 0.000393036 0.000416124 0.000495275 0 0.000159504 0 0.000204055 0.000159504 0.000306514 0.000204055 0.000394103 0 0.000204055 0 0.000253754 0.000204055 0.000394103 0.000253754 0.000486867 0.000440192 0.000233216 0.000230253 0.000118834 0.000233216 0 0.000118834 0 0.000230253 0.000118834 0 0 0.000118834 0 0 0 0.00094167 0.000887325 0.000980477 0.000918823 0.000887325 0.000691882 0.000918823 0.000712159 0.000980477 0.000918823 0.00094619 0.000885302 0.000918823 0.000712159 0.000885302 0.000684985 0.000649065 0.000862618 0.000566154 0.000752119 0.000862618 0.00094619 0.000752119 0.000824529 0.000566154 0.000752119 0.000425189 0.000557568 0.000752119 0.000824529 0.000557568 0.000613733 0.000425189 0.000557568 0.000212594 0.000298379 0.000557568 0.000613733 0.000298379 0.000329537 0.000212594 0.000298379 0 0 0.000298379 0.000329537 0 0 0.00094619 0.000885302 0.000824529 0.00077274 0.000885302 0.000684985 0.00077274 0.000597148 0.000824529 0.00077274 0.000613733 0.000574863 0.00077274 0.000597148 0.000574863 0.000440192 0.000684985 0.000374577 0.000597148 0.000322526 0.000374577 0 0.000322526 0 0.000322526 0 0.000233216 0 0.000613733 0.000574863 0.000329537 0.000305264 0.000329537 0.000305264 0 0 0.000305264 0.000230253 0 0 0.00127295 0.0010428 0.00196639 0.00161184 0.0010428 0.000736545 0.00161184 0.00113989 0.00233244 0.00265634 0.00296904 0.00339176 0.000750807 0.000952027 0.000772751 0.000965528 0.000952027 0.00122852 0.000965528 0.00124818 0.00248963 0.00303936 0.00287547 0.00351463 0.00412875 0.00457011 0.00480889 0.00533669 0.00418035 0.00480889 0.00465885 0.00537148 0.00480889 0.00533669 0.00537148 0.00596253 0.00138723 0.00146689 0.00213234 0.00226121 0.00146689 0.00148233 0.00226121 0.00228571 0.00148233 0.00141905 0.00228571 0.00219209 0.00141905 0.00127295 0.00219209 0.00196639 0.000817716 0 0.00104858 0 0.00233685 0.00296145 0.00191998 0.00242995 0.00149005 0.00191998 0.00107079 0.00136444 0.000896959 0.00110219 0 0 0.00178775 0.0022873 0.00197421 0.00253154 0.0022873 0.00287547 0.00253154 0.00318206 0.00159941 0.00208471 0.00161919 0.00210033 0.00197421 0.00253154 0.00208471 0.00268337 0.00208471 0.00268337 0.00210033 0.00270856 0.00268337 0.00338348 0.00270856 0.00343349 0 0 0.000624554 0.000513534 0 0 0.000513534 0.000357604 0.000385884 0 0.0005898 0 0.00113989 0.0005898 0.00157292 0.000817716 0.0005898 0 0.000817716 0 0.000772751 0.000965528 0.000757207 0.000945685 0.000965528 0.00124818 0.000945685 0.00120807 0.000757207 0.000945685 0.000741663 0.000881343 0.000945685 0.00120807 0.000881343 0.0011036 0.00111613 0.00125168 0.00169952 0.00194131 0.00125168 0.00138723 0.00194131 0.00213234 0.00169952 0.00194131 0.00233244 0.00265634 0.00194131 0.00213234 0.00265634 0.00292278 0.00162448 0.0019773 0.00206652 0.00251153 0.0019773 0.00233244 0.00251153 0.00296904 0.00206652 0.00251153 0.00248963 0.00303936 0.00251153 0.00296904 0.00303936 0.00359549 0 0 0.000693615 0.000719936 0 0 0.000719936 0.000728517 0.000693615 0.000719936 0.00138723 0.00146689 0 0 0.000728517 0.000696549 0 0 0.000696549 0.000624554 0.00116754 0.00149005 0.000847758 0.00107079 0.00107079 0.00136444 0.000558922 0.000712305 0.00136444 0.00172555 0.000712305 0.000896959 0.000558922 0.000712305 0 0 0.000712305 0.000896959 0 0 0.000249341 0.000299728 0.000308798 0.000373447 0.000299728 0.000376944 0.000373447 0.000479881 0.000308798 0.000373447 0.000368255 0.000440281 0.000373447 0.000479881 0.000440281 0.000564774 0.000881343 0.0011036 0.000777657 0.000933849 0.00068626 0.000777657 0.000602584 0.000637781 0.000602584 0.000637781 0.000523816 0.000464195 0.000523816 0.000464195 0.000445047 0.000307687 0.000368255 0.000440281 0.000421723 0.000511908 0.000421723 0.000511908 0.000475191 0.000567458 0.000475191 0.000567458 0.000514218 0.00061482 0.000514218 0.00061482 0.000553244 0.000662998 0.00061482 0.000750807 0.000662998 0.000772751 0.000803182 0.00102901 0.00100875 0.00130218 0.00100875 0.00130218 0.00120242 0.00155274 0.00102901 0.00132674 0.00130218 0.00165652 0.00132674 0.00162448 0.00165652 0.00206652 0.00130218 0.00165652 0.00155274 0.00198396 0.00165652 0.00206652 0.00198396 0.00248963 0.000376944 0.000497734 0.000479881 0.00060029 0.000497734 0.000618524 0.00060029 0.000788168 0.000479881 0.00060029 0.000564774 0.000710321 0.00060029 0.000788168 0.000710321 0.000930681 0.000391461 0.000225851 0.000380439 0.000190219 0.000225851 0 0.000190219 0 0.000564774 0.000710321 0.000647223 0.000812219 0.000710321 0.000930681 0.000812219 0.00106875 0.000647223 0.000812219 0.000709349 0.000883696 0.000812219 0.00106875 0.000883696 0.00116704 0.000454852 0.000558922 0 0 0.000394103 0.000462725 0.000440485 0.000526559 0.000462725 0.000531347 0.000526559 0.000592573 0.000440485 0.000526559 0.000486867 0.000570333 0.000526559 0.000592573 0.000570333 0.000653799 0 0 0.000357604 0.000187221 0 0 0.000187221 0 0.000357604 0.000187221 0.000736545 0.000385884 0.000187221 0 0.000385884 0 0.000653799 0.000693752 0.000707872 0.000765108 0.000693752 0.000733705 0.000765108 0.000783093 0.000707872 0.000765108 0.000761944 0.000819023 0.000765108 0.000783093 0.000819023 0.000838722 0.000575839 0.000668892 0.000609067 0.000727158 0.000668892 0.000761944 0.000727158 0.000803325 0.000609067 0.000727158 0.000642295 0.000748537 0.000727158 0.000803325 0.000748537 0.00085478 0.000597954 0.000669809 0.000605062 0.000635351 0.000669809 0.000741663 0.000635351 0.00068626 0.000605062 0.000635351 0.000612169 0.000607377 0.000635351 0.00068626 0.000607377 0.000602584 0.000761944 0.000819023 0.000803325 0.000873827 0.000819023 0.000838722 0.000873827 0.000887926 0.000803325 0.000873827 0.00085478 0.000898225 0.000873827 0.000887926 0.000898225 0.00094167 0.000122756 0.000154804 0.000186048 0.000224766 0.000154804 0.000186852 0.000224766 0.000281898 0.000186048 0.000224766 0.000249341 0.000299728 0.000224766 0.000281898 0.000299728 0.000376944 0.000733705 0.000727337 0.000783093 0.000792576 0.000727337 0.000720969 0.000792576 0.000756677 0.000783093 0.000792576 0.000838722 0.000842188 0.000792576 0.000756677 0.000842188 0.000800482 0.000720969 0.000673293 0.000756677 0.000712606 0.000673293 0.000625618 0.000712606 0.000625467 0.000756677 0.000712606 0.000800482 0.000743629 0.000712606 0.000625467 0.000743629 0.000648975 0.000625618 0.000535333 0.000625467 0.000527615 0.000535333 0.000445047 0.000527615 0.000391461 0.000625467 0.000527615 0.000648975 0.000514707 0.000527615 0.000391461 0.000514707 0.000380439 0.000838722 0.000842188 0.000887926 0.00089308 0.000842188 0.000800482 0.00089308 0.000839898 0.000887926 0.00089308 0.00094167 0.000914498 0.00089308 0.000839898 0.000914498 0.000887325 0.000304136 0.000403168 0.00046133 0.000597312 0.000403168 0.0005022 0.000597312 0.000765603 0.00046133 0.000597312 0.000618524 0.000803182 0.000597312 0.000765603 0.000803182 0.00102901 0.000800482 0.000743629 0.000839898 0.000777483 0.000743629 0.000648975 0.000777483 0.000670429 0.000839898 0.000777483 0.000887325 0.000789604 0.000777483 0.000670429 0.000789604 0.000691882 0 0 0.000392496 0.000466138 0 0 0.000466138 0.000558067 0.000392496 0.000466138 0.000784991 0.00095384 0.000466138 0.000558067 0.00095384 0.00111613 0.000784991 0.00095384 0.00120474 0.00144857 0.00095384 0.00111613 0.00144857 0.00169952 0.00120474 0.00144857 0.00162448 0.0019773 0.00144857 0.00169952 0.0019773 0.00233244 0.000344158 0.000493227 0.000350773 0.000517655 0.000493227 0.000642295 0.000517655 0.000656638 0.000350773 0.000517655 0.000357387 0.000520099 0.000517655 0.000656638 0.000520099 0.000670981 0.000357387 0.000520099 0.000351715 0.000521635 0.000520099 0.000670981 0.000521635 0.000660023 0.000351715 0.000521635 0.000346042 0.000502092 0.000521635 0.000660023 0.000502092 0.000649065 0.000346042 0.000502092 0.000324112 0.0004813 0.000502092 0.000649065 0.0004813 0.000607609 0.000324112 0.0004813 0.000302182 0.000434168 0.0004813 0.000607609 0.000434168 0.000566154 0.000597148 0.000459837 0.00051867 0.000413559 0.000459837 0.000322526 0.000413559 0.000277871 0.00051867 0.000413559 0.000440192 0.000336704 0.000413559 0.000277871 0.000336704 0.000233216 0.000574863 0.000507527 0.000440064 0.00040346 0.000507527 0.000440192 0.00040346 0.000335222 0.000440064 0.00040346 0.000305264 0.000267759 0.00040346 0.000335222 0.000267759 0.000230253 0.00457011 0.00485506 0.00533669 0.00567703 0.00269786 0.00221899 0.00348361 0.00286497 0.00221899 0.00157292 0.00286497 0.00202971 0.00248713 0.00129389 0.00292501 0.0015179 0.00129389 0 0.0015179 0 0.00292501 0.0015179 0.00328616 0.0017125 0.0015179 0 0.0017125 0 0.00390844 0.00465885 0.00416279 0.00496838 0.00465885 0.00537148 0.00496838 0.00573774 0.00242995 0.00299936 0.00172555 0.00213284 0.00255547 0.00296908 0.00133009 0.00154184 0.00296908 0.00331513 0.00154184 0.00172797 0.00133009 0.00154184 0 0 0.00154184 0.00172797 0 0 0.00196639 0.00178912 0.00230565 0.00213643 0.00178912 0.00161184 0.00213643 0.00188596 0.00230565 0.00213643 0.00269786 0.00245843 0.00213643 0.00188596 0.00245843 0.00221899 0.000477164 0 0.000371203 0 0.000371203 0 0.000248468 0 0.000477253 0.000371237 0 0 0.000371237 0.000248475 0 0 0.000248468 0 0.000126669 0 0.000248475 0.000126669 0 0 0.000126669 0 0 0 0.00161184 0.00137586 0.00188596 0.00164733 0.00137586 0.00113989 0.00164733 0.0013564 0.00188596 0.00164733 0.00221899 0.00189595 0.00164733 0.0013564 0.00189595 0.00157292 0.00396999 0.00402798 0.00440921 0.00447278 0.00402798 0.00402959 0.00447278 0.00447821 0.00265634 0.00278956 0.00302405 0.00319225 0.00278956 0.00292278 0.00319225 0.0033239 0.00302405 0.00319225 0.00339176 0.00358877 0.00319225 0.0033239 0.00358877 0.00373961 0.00296904 0.0031804 0.00328226 0.00353621 0.0031804 0.00339176 0.00353621 0.00375903 0.00328226 0.00353621 0.00359549 0.00386978 0.00353621 0.00375903 0.00386978 0.00412875 0.00402959 0.00397506 0.00447821 0.00442275 0.00397506 0.00386805 0.00442275 0.00430401 0.00386805 0.00370154 0.00430401 0.00411949 0.00370154 0.00348361 0.00411949 0.00386324 0.00339176 0.00358877 0.00375903 0.00398323 0.00358877 0.00373961 0.00398323 0.00414889 0.00375903 0.00398323 0.00412875 0.00434943 0.00398323 0.00414889 0.00434943 0.00457011 0.00533669 0.00550686 0.00564961 0.00586512 0.00550686 0.00567703 0.00586512 0.0060189 0.00564961 0.00586512 0.00596253 0.00617045 0.000709349 0.000796522 0.000740196 0.000820404 0.000796522 0.000883696 0.000820404 0.000935649 0.000740196 0.000820404 0.000750807 0.000851417 0.000820404 0.000935649 0.000851417 0.000952027 0.00659667 0.00670193 0.00680614 0.00689984 0.000883696 0.00102537 0.000935649 0.00105342 0.00102537 0.00116704 0.00105342 0.00121287 0.000935649 0.00105342 0.000952027 0.00109027 0.00105342 0.00121287 0.00109027 0.00122852 0.00348361 0.00317429 0.00386324 0.00355022 0.00317429 0.00286497 0.00355022 0.00316798 0.00286497 0.00244734 0.00316798 0.00273661 0.00244734 0.00202971 0.00273661 0.00224823 0.00316798 0.00273661 0.00349144 0.00301715 0.00273661 0.00224823 0.00301715 0.00248713 0.00660771 0.00680614 0.00672189 0.00690875 0.00303936 0.00331742 0.003277 0.00359652 0.00331742 0.00359549 0.00359652 0.00390014 0.003277 0.00359652 0.00351463 0.00384088 0.00359652 0.00390014 0.00384088 0.00418035 0.00287547 0.00319505 0.00302876 0.00338078 0.00319505 0.00351463 0.00338078 0.00373618 0.00302876 0.00338078 0.00318206 0.00352591 0.00338078 0.00373618 0.00352591 0.00390844 0.00680614 0.00689984 0.00690875 0.00702516 0.00351463 0.00384088 0.00373618 0.00408894 0.00384088 0.00418035 0.00408894 0.0044196 0.00373618 0.00408894 0.00390844 0.00428365 0.00408894 0.0044196 0.00428365 0.00465885 0.00359549 0.00386978 0.00390014 0.00420453 0.00386978 0.00412875 0.00420453 0.00446882 0.00390014 0.00420453 0.00418035 0.00449462 0.00420453 0.00446882 0.00449462 0.00480889 0.00416279 0.00456559 0.00422209 0.00462648 0.00456559 0.00496838 0.00462648 0.00503742 0.00422209 0.00462648 0.00422666 0.00463706 0.00213234 0.00219678 0.00252756 0.00261208 0.00219678 0.00226121 0.00261208 0.00265773 0.00252756 0.00261208 0.00292278 0.00303448 0.00261208 0.00265773 0.00303448 0.0030924 0.00537148 0.005667 0.00555461 0.00589441 0.005667 0.00596253 0.00589441 0.0061844 0.00555461 0.00589441 0.00573774 0.00606337 0.00573774 0.00606337 0.00581937 0.00615986 0.00226121 0.00227346 0.00265773 0.00270483 0.00227346 0.00228571 0.00270483 0.00268532 0.00265773 0.00270483 0.0030924 0.00314508 0.00270483 0.00268532 0.00314508 0.00312637 0.00422666 0.00463706 0.0041718 0.00458164 0.0041718 0.00458164 0.00406082 0.00446041 0.00228571 0.0022389 0.00268532 0.00266762 0.0022389 0.00219209 0.00266762 0.00257323 0.00268532 0.00266762 0.00312637 0.00310247 0.00266762 0.00257323 0.00310247 0.00299688 0.00406082 0.00446041 0.00388734 0.00426984 0.00388734 0.00426984 0.00365119 0.00401179 0.00495451 0.00429881 0.00503638 0.00438196 0.00328616 0.00249933 0.00341566 0.00263797 0.00249933 0.0017125 0.00263797 0.00177524 0.0017125 0.000856251 0.00177524 0.000896662 0.000856251 0 0.000896662 0 0.00177524 0.000896662 0.00184015 0.000922188 0.000896662 0 0.000922188 0 0.00184015 0.000922188 0.00188573 0.000944988 0.000922188 0 0.000944988 0 0.000944988 0 0.000957825 0 0.00219209 0.00207924 0.00257323 0.00248125 0.00207924 0.00196639 0.00248125 0.00230565 0.00257323 0.00248125 0.00299688 0.00288895 0.00248125 0.00230565 0.00288895 0.00269786 0.00365119 0.00401179 0.00335359 0.00368436 0.00335359 0.00368436 0.00299936 0.00329051 0.00299936 0.00329051 0.0025661 0.00283699 0.00329051 0.00358785 0.00283699 0.00309901 0.0025661 0.00283699 0.00213284 0.00233042 0.00157292 0.00119532 0.00180131 0.00138434 0.00119532 0.000817716 0.00138434 0.000933148 0.00180131 0.00138434 0.00202971 0.00156302 0.00138434 0.000933148 0.00156302 0.00104858 0.00202971 0.00156302 0.00224823 0.0017391 0.00156302 0.00104858 0.0017391 0.0011635 0.00224823 0.0017391 0.00248713 0.00189051 0.0017391 0.0011635 0.00189051 0.00129389 0.00104858 0.00052429 0.0011635 0.000593788 0.00052429 0 0.000593788 0 0.0011635 0.000593788 0.00129389 0.000646947 0.000593788 0 0.000646947 0 0.00596253 0.00617045 0.0061844 0.00642517 0.00181722 0.00204706 0.00168695 0.0018964 0.00204706 0.00233685 0.0018964 0.00212842 0.00168695 0.0018964 0.00149005 0.00170502 0.0018964 0.00212842 0.00170502 0.00191998 0.00191998 0.00217496 0.00164221 0.00187148 0.00217496 0.00242995 0.00187148 0.00207775 0.00164221 0.00187148 0.00136444 0.00154499 0.00187148 0.00207775 0.00154499 0.00172555 0.00172555 0.0019292 0.00131125 0.00148079 0.0019292 0.00213284 0.00148079 0.00164383 0.00131125 0.00148079 0.000896959 0.000999574 0.00148079 0.00164383 0.000999574 0.00110219 0.00213284 0.00233042 0.00164383 0.00180344 0.00233042 0.00255547 0.00180344 0.00194278 0.00164383 0.00180344 0.00110219 0.00120674 0.00180344 0.00194278 0.00120674 0.00133009 0.00110219 0.00120674 0.000551094 0.000615841 0.00120674 0.00133009 0.000615841 0.000665046 0.000551094 0.000615841 0 0 0.000615841 0.000665046 0 0 0.000930681 0.00104822 0.000999713 0.00112976 0.00104822 0.00120242 0.00112976 0.00129888 0.000999713 0.00112976 0.00106875 0.00119973 0.00112976 0.00129888 0.00119973 0.00137795 0.00120242 0.00137758 0.00129888 0.00147044 0.00137758 0.00155274 0.00147044 0.00168612 0.00129888 0.00147044 0.00137795 0.00156161 0.00147044 0.00168612 0.00156161 0.00178775 0.000957825 0 0.000948261 0 0.000948261 0 0.000934548 0 0.00483134 0.00497596 0.00416847 0.00431953 0.00497596 0.00505852 0.00431953 0.00439687 0.00331513 0.00343848 0.00252155 0.00265609 0.00252155 0.00265609 0.00172797 0.00178745 0.00172797 0.00178745 0.000863985 0.000902877 0.00178745 0.00184979 0.000902877 0.000927083 0.000863985 0.000902877 0 0 0.000902877 0.000927083 0 0 0.00184979 0.00189327 0.000927083 0.000948814 0.000927083 0.000948814 0 0 0.000948814 0.000960743 0 0 0.000960743 0.00095045 0 0 0.00095045 0.000936159 0 0 0.00106875 0.00119973 0.00111789 0.00126641 0.00119973 0.00137795 0.00126641 0.00145701 0.00111789 0.00126641 0.00116704 0.0013179 0.00126641 0.00145701 0.0013179 0.00151791 0.00137795 0.00156161 0.00145701 0.00165161 0.00156161 0.00178775 0.00165161 0.00188098 0.00145701 0.00165161 0.00151791 0.00171722 0.00165161 0.00188098 0.00171722 0.00197421 0.00155274 0.00176835 0.00168612 0.00189788 0.00176835 0.00198396 0.00189788 0.00215671 0.00168612 0.00189788 0.00178775 0.00203752 0.00189788 0.00215671 0.00203752 0.0022873 0.00198396 0.00223679 0.00215671 0.0024071 0.00223679 0.00248963 0.0024071 0.00268255 0.00215671 0.0024071 0.0022873 0.00258138 0.0024071 0.00268255 0.00258138 0.00287547 0.00116704 0.0013179 0.00121287 0.0013667 0.0013179 0.00151791 0.0013667 0.00157619 0.00121287 0.0013667 0.00122852 0.00138855 0.0013667 0.00157619 0.00138855 0.00159941 0.00151791 0.00171722 0.00157619 0.00178532 0.00171722 0.00197421 0.00178532 0.00202946 0.00157619 0.00178532 0.00159941 0.00184206 0.00178532 0.00202946 0.00184206 0.00208471 0.00122852 0.00138855 0.00123835 0.00141213 0.00138855 0.00159941 0.00141213 0.0016093 0.00123835 0.00141213 0.00124818 0.00140429 0.00141213 0.0016093 0.00140429 0.00161919 0.00253154 0.0028568 0.00260745 0.00295159 0.0028568 0.00318206 0.00295159 0.0033162 0.00260745 0.00295159 0.00268337 0.00303342 0.00295159 0.0033162 0.00303342 0.00338348 0.00124818 0.00140429 0.00122812 0.00139891 0.00140429 0.00161919 0.00139891 0.00161188 0.00122812 0.00139891 0.00120807 0.00135523 0.00139891 0.00161188 0.00135523 0.00155906 0.00161919 0.00185976 0.00161188 0.00182429 0.00185976 0.00210033 0.00182429 0.00209711 0.00161188 0.00182429 0.00155906 0.00176366 0.00182429 0.00209711 0.