<?xml version="1.0" ?> 
<!-- 
# vtk DataFile Version 3.0
#This file was generated by the deal.II library on 21:43:12 at 2021/4/29
-->
<VTKFile type="UnstructuredGrid" version="0.1" byte_order="LittleEndian">
<UnstructuredGrid>
<Piece NumberOfPoints="65536" NumberOfCells="16384" >
  <Points>
    <DataArray type="Float32" NumberOfComponents="3" format="ascii">
-1 -1 0
-0.984375 -1 0
-1 -0.984375 0
-0.984375 -0.984375 0
-0.984375 -1 0
-0.96875 -1 0
-0.984375 -0.984375 0
-0.96875 -0.984375 0
-1 -0.984375 0
-0.984375 -0.984375 0
-1 -0.96875 0
-0.984375 -0.96875 0
-0.984375 -0.984375 0
-0.96875 -0.984375 0
-0.984375 -0.96875 0
-0.96875 -0.96875 0
-0.96875 -1 0
-0.953125 -1 0
-0.96875 -0.984375 0
-0.953125 -0.984375 0
-0.953125 -1 0
-0.9375 -1 0
-0.953125 -0.984375 0
-0.9375 -0.984375 0
-0.96875 -0.984375 0
-0.953125 -0.984375 0
-0.96875 -0.96875 0
-0.953125 -0.96875 0
-0.953125 -0.984375 0
-0.9375 -0.984375 0
-0.953125 -0.96875 0
-0.9375 -0.96875 0
-1 -0.96875 0
-0.984375 -0.96875 0
-1 -0.953125 0
-0.984375 -0.953125 0
-0.984375 -0.96875 0
-0.96875 -0.96875 0
-0.984375 -0.953125 0
-0.96875 -0.953125 0
-1 -0.953125 0
-0.984375 -0.953125 0
-1 -0.9375 0
-0.984375 -0.9375 0
-0.984375 -0.953125 0
-0.96875 -0.953125 0
-0.984375 -0.9375 0
-0.96875 -0.9375 0
-0.96875 -0.96875 0
-0.953125 -0.96875 0
-0.96875 -0.953125 0
-0.953125 -0.953125 0
-0.953125 -0.96875 0
-0.9375 -0.96875 0
-0.953125 -0.953125 0
-0.9375 -0.953125 0
-0.96875 -0.953125 0
-0.953125 -0.953125 0
-0.96875 -0.9375 0
-0.953125 -0.9375 0
-0.953125 -0.953125 0
-0.9375 -0.953125 0
-0.953125 -0.9375 0
-0.9375 -0.9375 0
-0.9375 -1 0
-0.921875 -1 0
-0.9375 -0.984375 0
-0.921875 -0.984375 0
-0.921875 -1 0
-0.90625 -1 0
-0.921875 -0.984375 0
-0.90625 -0.984375 0
-0.9375 -0.984375 0
-0.921875 -0.984375 0
-0.9375 -0.96875 0
-0.921875 -0.96875 0
-0.921875 -0.984375 0
-0.90625 -0.984375 0
-0.921875 -0.96875 0
-0.90625 -0.96875 0
-0.90625 -1 0
-0.890625 -1 0
-0.90625 -0.984375 0
-0.890625 -0.984375 0
-0.890625 -1 0
-0.875 -1 0
-0.890625 -0.984375 0
-0.875 -0.984375 0
-0.90625 -0.984375 0
-0.890625 -0.984375 0
-0.90625 -0.96875 0
-0.890625 -0.96875 0
-0.890625 -0.984375 0
-0.875 -0.984375 0
-0.890625 -0.96875 0
-0.875 -0.96875 0
-0.9375 -0.96875 0
-0.921875 -0.96875 0
-0.9375 -0.953125 0
-0.921875 -0.953125 0
-0.921875 -0.96875 0
-0.90625 -0.96875 0
-0.921875 -0.953125 0
-0.90625 -0.953125 0
-0.9375 -0.953125 0
-0.921875 -0.953125 0
-0.9375 -0.9375 0
-0.921875 -0.9375 0
-0.921875 -0.953125 0
-0.90625 -0.953125 0
-0.921875 -0.9375 0
-0.90625 -0.9375 0
-0.90625 -0.96875 0
-0.890625 -0.96875 0
-0.90625 -0.953125 0
-0.890625 -0.953125 0
-0.890625 -0.96875 0
-0.875 -0.96875 0
-0.890625 -0.953125 0
-0.875 -0.953125 0
-0.90625 -0.953125 0
-0.890625 -0.953125 0
-0.90625 -0.9375 0
-0.890625 -0.9375 0
-0.890625 -0.953125 0
-0.875 -0.953125 0
-0.890625 -0.9375 0
-0.875 -0.9375 0
-1 -0.9375 0
-0.984375 -0.9375 0
-1 -0.921875 0
-0.984375 -0.921875 0
-0.984375 -0.9375 0
-0.96875 -0.9375 0
-0.984375 -0.921875 0
-0.96875 -0.921875 0
-1 -0.921875 0
-0.984375 -0.921875 0
-1 -0.90625 0
-0.984375 -0.90625 0
-0.984375 -0.921875 0
-0.96875 -0.921875 0
-0.984375 -0.90625 0
-0.96875 -0.90625 0
-0.96875 -0.9375 0
-0.953125 -0.9375 0
-0.96875 -0.921875 0
-0.953125 -0.921875 0
-0.953125 -0.9375 0
-0.9375 -0.9375 0
-0.953125 -0.921875 0
-0.9375 -0.921875 0
-0.96875 -0.921875 0
-0.953125 -0.921875 0
-0.96875 -0.90625 0
-0.953125 -0.90625 0
-0.953125 -0.921875 0
-0.9375 -0.921875 0
-0.953125 -0.90625 0
-0.9375 -0.90625 0
-1 -0.90625 0
-0.984375 -0.90625 0
-1 -0.890625 0
-0.984375 -0.890625 0
-0.984375 -0.90625 0
-0.96875 -0.90625 0
-0.984375 -0.890625 0
-0.96875 -0.890625 0
-1 -0.890625 0
-0.984375 -0.890625 0
-1 -0.875 0
-0.984375 -0.875 0
-0.984375 -0.890625 0
-0.96875 -0.890625 0
-0.984375 -0.875 0
-0.96875 -0.875 0
-0.96875 -0.90625 0
-0.953125 -0.90625 0
-0.96875 -0.890625 0
-0.953125 -0.890625 0
-0.953125 -0.90625 0
-0.9375 -0.90625 0
-0.953125 -0.890625 0
-0.9375 -0.890625 0
-0.96875 -0.890625 0
-0.953125 -0.890625 0
-0.96875 -0.875 0
-0.953125 -0.875 0
-0.953125 -0.890625 0
-0.9375 -0.890625 0
-0.953125 -0.875 0
-0.9375 -0.875 0
-0.9375 -0.9375 0
-0.921875 -0.9375 0
-0.9375 -0.921875 0
-0.921875 -0.921875 0
-0.921875 -0.9375 0
-0.90625 -0.9375 0
-0.921875 -0.921875 0
-0.90625 -0.921875 0
-0.9375 -0.921875 0
-0.921875 -0.921875 0
-0.9375 -0.90625 0
-0.921875 -0.90625 0
-0.921875 -0.921875 0
-0.90625 -0.921875 0
-0.921875 -0.90625 0
-0.90625 -0.90625 0
-0.90625 -0.9375 0
-0.890625 -0.9375 0
-0.90625 -0.921875 0
-0.890625 -0.921875 0
-0.890625 -0.9375 0
-0.875 -0.9375 0
-0.890625 -0.921875 0
-0.875 -0.921875 0
-0.90625 -0.921875 0
-0.890625 -0.921875 0
-0.90625 -0.90625 0
-0.890625 -0.90625 0
-0.890625 -0.921875 0
-0.875 -0.921875 0
-0.890625 -0.90625 0
-0.875 -0.90625 0
-0.9375 -0.90625 0
-0.921875 -0.90625 0
-0.9375 -0.890625 0
-0.921875 -0.890625 0
-0.921875 -0.90625 0
-0.90625 -0.90625 0
-0.921875 -0.890625 0
-0.90625 -0.890625 0
-0.9375 -0.890625 0
-0.921875 -0.890625 0
-0.9375 -0.875 0
-0.921875 -0.875 0
-0.921875 -0.890625 0
-0.90625 -0.890625 0
-0.921875 -0.875 0
-0.90625 -0.875 0
-0.90625 -0.90625 0
-0.890625 -0.90625 0
-0.90625 -0.890625 0
-0.890625 -0.890625 0
-0.890625 -0.90625 0
-0.875 -0.90625 0
-0.890625 -0.890625 0
-0.875 -0.890625 0
-0.90625 -0.890625 0
-0.890625 -0.890625 0
-0.90625 -0.875 0
-0.890625 -0.875 0
-0.890625 -0.890625 0
-0.875 -0.890625 0
-0.890625 -0.875 0
-0.875 -0.875 0
-0.875 -1 0
-0.859375 -1 0
-0.875 -0.984375 0
-0.859375 -0.984375 0
-0.859375 -1 0
-0.84375 -1 0
-0.859375 -0.984375 0
-0.84375 -0.984375 0
-0.875 -0.984375 0
-0.859375 -0.984375 0
-0.875 -0.96875 0
-0.859375 -0.96875 0
-0.859375 -0.984375 0
-0.84375 -0.984375 0
-0.859375 -0.96875 0
-0.84375 -0.96875 0
-0.84375 -1 0
-0.828125 -1 0
-0.84375 -0.984375 0
-0.828125 -0.984375 0
-0.828125 -1 0
-0.8125 -1 0
-0.828125 -0.984375 0
-0.8125 -0.984375 0
-0.84375 -0.984375 0
-0.828125 -0.984375 0
-0.84375 -0.96875 0
-0.828125 -0.96875 0
-0.828125 -0.984375 0
-0.8125 -0.984375 0
-0.828125 -0.96875 0
-0.8125 -0.96875 0
-0.875 -0.96875 0
-0.859375 -0.96875 0
-0.875 -0.953125 0
-0.859375 -0.953125 0
-0.859375 -0.96875 0
-0.84375 -0.96875 0
-0.859375 -0.953125 0
-0.84375 -0.953125 0
-0.875 -0.953125 0
-0.859375 -0.953125 0
-0.875 -0.9375 0
-0.859375 -0.9375 0
-0.859375 -0.953125 0
-0.84375 -0.953125 0
-0.859375 -0.9375 0
-0.84375 -0.9375 0
-0.84375 -0.96875 0
-0.828125 -0.96875 0
-0.84375 -0.953125 0
-0.828125 -0.953125 0
-0.828125 -0.96875 0
-0.8125 -0.96875 0
-0.828125 -0.953125 0
-0.8125 -0.953125 0
-0.84375 -0.953125 0
-0.828125 -0.953125 0
-0.84375 -0.9375 0
-0.828125 -0.9375 0
-0.828125 -0.953125 0
-0.8125 -0.953125 0
-0.828125 -0.9375 0
-0.8125 -0.9375 0
-0.8125 -1 0
-0.796875 -1 0
-0.8125 -0.984375 0
-0.796875 -0.984375 0
-0.796875 -1 0
-0.78125 -1 0
-0.796875 -0.984375 0
-0.78125 -0.984375 0
-0.8125 -0.984375 0
-0.796875 -0.984375 0
-0.8125 -0.96875 0
-0.796875 -0.96875 0
-0.796875 -0.984375 0
-0.78125 -0.984375 0
-0.796875 -0.96875 0
-0.78125 -0.96875 0
-0.78125 -1 0
-0.765625 -1 0
-0.78125 -0.984375 0
-0.765625 -0.984375 0
-0.765625 -1 0
-0.75 -1 0
-0.765625 -0.984375 0
-0.75 -0.984375 0
-0.78125 -0.984375 0
-0.765625 -0.984375 0
-0.78125 -0.96875 0
-0.765625 -0.96875 0
-0.765625 -0.984375 0
-0.75 -0.984375 0
-0.765625 -0.96875 0
-0.75 -0.96875 0
-0.8125 -0.96875 0
-0.796875 -0.96875 0
-0.8125 -0.953125 0
-0.796875 -0.953125 0
-0.796875 -0.96875 0
-0.78125 -0.96875 0
-0.796875 -0.953125 0
-0.78125 -0.953125 0
-0.8125 -0.953125 0
-0.796875 -0.953125 0
-0.8125 -0.9375 0
-0.796875 -0.9375 0
-0.796875 -0.953125 0
-0.78125 -0.953125 0
-0.796875 -0.9375 0
-0.78125 -0.9375 0
-0.78125 -0.96875 0
-0.765625 -0.96875 0
-0.78125 -0.953125 0
-0.765625 -0.953125 0
-0.765625 -0.96875 0
-0.75 -0.96875 0
-0.765625 -0.953125 0
-0.75 -0.953125 0
-0.78125 -0.953125 0
-0.765625 -0.953125 0
-0.78125 -0.9375 0
-0.765625 -0.9375 0
-0.765625 -0.953125 0
-0.75 -0.953125 0
-0.765625 -0.9375 0
-0.75 -0.9375 0
-0.875 -0.9375 0
-0.859375 -0.9375 0
-0.875 -0.921875 0
-0.859375 -0.921875 0
-0.859375 -0.9375 0
-0.84375 -0.9375 0
-0.859375 -0.921875 0
-0.84375 -0.921875 0
-0.875 -0.921875 0
-0.859375 -0.921875 0
-0.875 -0.90625 0
-0.859375 -0.90625 0
-0.859375 -0.921875 0
-0.84375 -0.921875 0
-0.859375 -0.90625 0
-0.84375 -0.90625 0
-0.84375 -0.9375 0
-0.828125 -0.9375 0
-0.84375 -0.921875 0
-0.828125 -0.921875 0
-0.828125 -0.9375 0
-0.8125 -0.9375 0
-0.828125 -0.921875 0
-0.8125 -0.921875 0
-0.84375 -0.921875 0
-0.828125 -0.921875 0
-0.84375 -0.90625 0
-0.828125 -0.90625 0
-0.828125 -0.921875 0
-0.8125 -0.921875 0
-0.828125 -0.90625 0
-0.8125 -0.90625 0
-0.875 -0.90625 0
-0.859375 -0.90625 0
-0.875 -0.890625 0
-0.859375 -0.890625 0
-0.859375 -0.90625 0
-0.84375 -0.90625 0
-0.859375 -0.890625 0
-0.84375 -0.890625 0
-0.875 -0.890625 0
-0.859375 -0.890625 0
-0.875 -0.875 0
-0.859375 -0.875 0
-0.859375 -0.890625 0
-0.84375 -0.890625 0
-0.859375 -0.875 0
-0.84375 -0.875 0
-0.84375 -0.90625 0
-0.828125 -0.90625 0
-0.84375 -0.890625 0
-0.828125 -0.890625 0
-0.828125 -0.90625 0
-0.8125 -0.90625 0
-0.828125 -0.890625 0
-0.8125 -0.890625 0
-0.84375 -0.890625 0
-0.828125 -0.890625 0
-0.84375 -0.875 0
-0.828125 -0.875 0
-0.828125 -0.890625 0
-0.8125 -0.890625 0
-0.828125 -0.875 0
-0.8125 -0.875 0
-0.8125 -0.9375 0
-0.796875 -0.9375 0
-0.8125 -0.921875 0
-0.796875 -0.921875 0
-0.796875 -0.9375 0
-0.78125 -0.9375 0
-0.796875 -0.921875 0
-0.78125 -0.921875 0
-0.8125 -0.921875 0
-0.796875 -0.921875 0
-0.8125 -0.90625 0
-0.796875 -0.90625 0
-0.796875 -0.921875 0
-0.78125 -0.921875 0
-0.796875 -0.90625 0
-0.78125 -0.90625 0
-0.78125 -0.9375 0
-0.765625 -0.9375 0
-0.78125 -0.921875 0
-0.765625 -0.921875 0
-0.765625 -0.9375 0
-0.75 -0.9375 0
-0.765625 -0.921875 0
-0.75 -0.921875 0
-0.78125 -0.921875 0
-0.765625 -0.921875 0
-0.78125 -0.90625 0
-0.765625 -0.90625 0
-0.765625 -0.921875 0
-0.75 -0.921875 0
-0.765625 -0.90625 0
-0.75 -0.90625 0
-0.8125 -0.90625 0
-0.796875 -0.90625 0
-0.8125 -0.890625 0
-0.796875 -0.890625 0
-0.796875 -0.90625 0
[...]
  <PointData Scalars="scalars">
    <DataArray type="Float32" Name="U" format="ascii">
0 0 0 7.93031e-05 0 0 7.93031e-05 0.00015869 0 7.93031e-05 0 0.000161267 7.93031e-05 0.00015869 0.000161267 0.000333055 0 0 0.00015869 0.000238521 0 0 0.000238521 0.000320583 0.00015869 0.000238521 0.000333055 0.000525738 0.000238521 0.000320583 0.000525738 0.000748333 0 0.000161267 0 0.000251872 0.000161267 0.000333055 0.000251872 0.000509127 0 0.000251872 0 0.000303802 0.000251872 0.000509127 0.000303802 0.00061522 0.000333055 0.000525738 0.000509127 0.000776837 0.000525738 0.000748333 0.000776837 0.00105987 0.000509127 0.000776837 0.00061522 0.000942326 0.000776837 0.00105987 0.000942326 0.00129464 0 0 0.000320583 0.000410595 0 0 0.000410595 0.00052148 0.000320583 0.000410595 0.000748333 0.00100555 0.000410595 0.00052148 0.00100555 0.00129377 0 0 0.00052148 0.000674655 0 0 0.000674655 0.000894614 0.00052148 0.000674655 0.00129377 0.00159882 0.000674655 0.000894614 0.00159882 0.00190092 0.000748333 0.00100555 0.00105987 0.00136373 0.00100555 0.00129377 0.00136373 0.00169607 0.00105987 0.00136373 0.00129464 0.00168493 0.00136373 0.00169607 0.00168493 0.00213113 0.00129377 0.00159882 0.00169607 0.00206831 0.00159882 0.00190092 0.00206831 0.00249612 0.00169607 0.00206831 0.00213113 0.00265631 0.00206831 0.00249612 0.00265631 0.00328302 0 0.000303802 0 0.000372352 0.000303802 0.00061522 0.000372352 0.000761184 0 0.000372352 0 0.000467223 0.000372352 0.000761184 0.000467223 0.000943763 0.00061522 0.000942326 0.000761184 0.00118271 0.000942326 0.00129464 0.00118271 0.00165164 0.000761184 0.00118271 0.000943763 0.00143907 0.00118271 0.00165164 0.00143907 0.00196337 0 0.000467223 0 0.000564406 0.000467223 0.000943763 0.000564406 0.00113768 0 0.000564406 0 0.00068672 0.000564406 0.00113768 0.00068672 0.00138659 0.000943763 0.00143907 0.00113768 0.00172872 0.00143907 0.00196337 0.00172872 0.00234696 0.00113768 0.00172872 0.00138659 0.0021128 0.00172872 0.00234696 0.0021128 0.00287757 0.00129464 0.00168493 0.00165164 0.00217844 0.00168493 0.00213113 0.00217844 0.00276611 0.00165164 0.00217844 0.00196337 0.00252884 0.00217844 0.00276611 0.00252884 0.0031506 0.00213113 0.00265631 0.00276611 0.00340944 0.00265631 0.00328302 0.00340944 0.00410109 0.00276611 0.00340944 0.0031506 0.00384606 0.00340944 0.00410109 0.00384606 0.00463233 0.00196337 0.00252884 0.00234696 0.00300386 0.00252884 0.0031506 0.00300386 0.00371565 0.00234696 0.00300386 0.00287757 0.00368919 0.00300386 0.00371565 0.00368919 0.00454812 0.0031506 0.00384606 0.00371565 0.00450564 0.00384606 0.00463233 0.00450564 0.0054014 0.00371565 0.00450564 0.00454812 0.00544572 0.00450564 0.0054014 0.00544572 0.0063723 0 0 0.000894614 0.00119313 0 0 0.00119313 0.00154745 0.000894614 0.00119313 0.00190092 0.00219079 0.00119313 0.00154745 0.00219079 0.00249263 0 0 0.00154745 0.00189083 0 0 0.00189083 0.00214139 0.00154745 0.00189083 0.00249263 0.00287543 0.00189083 0.00214139 0.00287543 0.00342598 0.00190092 0.00219079 0.00249612 0.00299762 0.00219079 0.00249263 0.00299762 0.00358873 0.00249612 0.00299762 0.00328302 0.00402056 0.00299762 0.00358873 0.00402056 0.00485082 0.00249263 0.00287543 0.00358873 0.00427719 0.00287543 0.00342598 0.00427719 0.00505896 0.00358873 0.00427719 0.00485082 0.00572863 0.00427719 0.00505896 0.00572863 0.006612 0 0 0.00214139 0.00227474 0 0 0.00227474 0.00239155 0.00214139 0.00227474 0.00342598 0.00417707 0.00227474 0.00239155 0.00417707 0.00503894 0 0 0.00239155 0.00268569 0 0 0.00268569 0.00326932 0.00239155 0.00268569 0.00503894 0.00582695 0.00268569 0.00326932 0.00582695 0.00642778 0.00342598 0.00417707 0.00505896 0.00592221 0.00417707 0.00503894 0.00592221 0.00685884 0.00505896 0.00592221 0.006612 0.00751488 0.00592221 0.00685884 0.00751488 0.00853917 0.00503894 0.00582695 0.00685884 0.0078737 0.00582695 0.00642778 0.0078737 0.00898174 0.00685884 0.0078737 0.00853917 0.00983352 0.0078737 0.00898174 0.00983352 0.0114759 0.00328302 0.00402056 0.00410109 0.00484564 0.00402056 0.00485082 0.00484564 0.00567376 0.00410109 0.00484564 0.00463233 0.00552421 0.00484564 0.00567376 0.00552421 0.00653714 0.00485082 0.00572863 0.00567376 0.00664089 0.00572863 0.006612 0.00664089 0.00780016 0.00567376 0.00664089 0.00653714 0.0076932 0.00664089 0.00780016 0.0076932 0.00901723 0.00463233 0.00552421 0.0054014 0.00642166 0.00552421 0.00653714 0.00642166 0.00755677 0.0054014 0.00642166 0.0063723 0.00733629 0.00642166 0.00755677 0.00733629 0.00838038 0.00653714 0.0076932 0.00755677 0.00876479 0.0076932 0.00901723 0.00876479 0.0100088 0.00755677 0.00876479 0.00838038 0.00956637 0.00876479 0.0100088 0.00956637 0.0109215 0.006612 0.00751488 0.00780016 0.00916295 0.00751488 0.00853917 0.00916295 0.0106818 0.00780016 0.00916295 0.00901723 0.0105129 0.00916295 0.0106818 0.0105129 0.0121398 0.00853917 0.00983352 0.0106818 0.0122819 0.00983352 0.0114759 0.0122819 0.0139278 0.0106818 0.0122819 0.0121398 0.0138361 0.0122819 0.0139278 0.0138361 0.0155836 0.00901723 0.0105129 0.0100088 0.0113201 0.0105129 0.0121398 0.0113201 0.0128111 0.0100088 0.0113201 0.0109215 0.0124018 0.0113201 0.0128111 0.0124018 0.0139516 0.0121398 0.0138361 0.0128111 0.0145824 0.0138361 0.0155836 0.0145824 0.0166141 0.0128111 0.0145824 0.0139516 0.0156251 0.0145824 0.0166141 0.0156251 0.0175871 0 0.00068672 0 0.000832884 0.00068672 0.00138659 0.000832884 0.00167021 0 0.000832884 0 0.00100976 0.000832884 0.00167021 0.00100976 0.00202494 0.00138659 0.0021128 0.00167021 0.00251688 0.0021128 0.00287757 0.00251688 0.00337964 0.00167021 0.00251688 0.00202494 0.00305007 0.00251688 0.00337964 0.00305007 0.0040877 0 0.00100976 0 0.00119155 0.00100976 0.00202494 0.00119155 0.0023891 0 0.00119155 0 0.00135978 0.00119155 0.0023891 0.00135978 0.00272282 0.00202494 0.00305007 0.0023891 0.00360001 0.00305007 0.0040877 0.00360001 0.00483377 0.0023891 0.00360001 0.00272282 0.00409106 0.00360001 0.00483377 0.00409106 0.00546519 0.00287757 0.00368919 0.00337964 0.00426955 0.00368919 0.00454812 0.00426955 0.00520366 0.00337964 0.00426955 0.0040877 0.00513812 0.00426955 0.00520366 0.00513812 0.00620215 0.00454812 0.00544572 0.00520366 0.00620178 0.00544572 0.0063723 0.00620178 0.00727521 0.00520366 0.00620178 0.00620215 0.00728961 0.00620178 0.00727521 0.00728961 0.00842983 0.0040877 0.00513812 0.00483377 0.00610042 0.00513812 0.00620215 0.00610042 0.00740489 0.00483377 0.00610042 0.00546519 0.00684739 0.00610042 0.00740489 0.00684739 0.00824725 0.00620215 0.00728961 0.00740489 0.00873811 0.00728961 0.00842983 0.00873811 0.0100744 0.00740489 0.00873811 0.00824725 0.00968567 0.00873811 0.0100744 0.00968567 0.0111847 0 0.00135978 0 0.00143465 0.00135978 0.00272282 0.00143465 0.00287582 0 0.00143465 0 0.00144943 0.00143465 0.00287582 0.00144943 0.00289774 0.00272282 0.00409106 0.00287582 0.00432989 0.00409106 0.00546519 0.00432989 0.00580121 0.00287582 0.00432989 0.00289774 0.0043449 0.00432989 0.00580121 0.0043449 0.00579466 0 0.00144943 0 0.00145209 0.00144943 0.00289774 0.00145209 0.00291095 0 0.00145209 0 0.00144679 0.00145209 0.00291095 0.00144679 0.00289443 0.00289774 0.0043449 0.00291095 0.00438176 0.0043449 0.00579466 0.00438176 0.00586537 0.00291095 0.00438176 0.00289443 0.00434599 0.00438176 0.00586537 0.00434599 0.00580862 0.00546519 0.00684739 0.00580121 0.00728789 0.00684739 0.00824725 0.00728789 0.00877703 0.00580121 0.00728789 0.00579466 0.0072584 0.00728789 0.00877703 0.0072584 0.00875681 0.00824725 0.00968567 0.00877703 0.0102476 0.00968567 0.0111847 0.0102476 0.0116909 0.00877703 0.0102476 0.00875681 0.0103103 0.0102476 0.0116909 0.0103103 0.0119164 0.00579466 0.0072584 0.00586537 0.00735685 0.0072584 0.00875681 0.00735685 0.00884818 0.00586537 0.00735685 0.00580862 0.00729199 0.00735685 0.00884818 0.00729199 0.00880021 0.00875681 0.0103103 0.00884818 0.0103428 0.0103103 0.0119164 0.0103428 0.0118709 0.00884818 0.0103428 0.00880021 0.0103153 0.0103428 0.0118709 0.0103153 0.0117918 0.0063723 0.00733629 0.00727521 0.00841434 0.00733629 0.00838038 0.00841434 0.00959569 0.00727521 0.00841434 0.00842983 0.00966929 0.00841434 0.00959569 0.00966929 0.0110401 0.00838038 0.00956637 0.00959569 0.0108225 0.00956637 0.0109215 0.0108225 0.0121655 0.00959569 0.0108225 0.0110401 0.012514 0.0108225 0.0121655 0.012514 0.0140084 0.00842983 0.00966929 0.0100744 0.0113908 0.00966929 0.0110401 0.0113908 0.0127078 0.0100744 0.0113908 0.0111847 0.0127363 0.0113908 0.0127078 0.0127363 0.0142728 0.0110401 0.012514 0.0127078 0.0141052 0.012514 0.0140084 0.0141052 0.0156504 0.0127078 0.0141052 0.0142728 0.0157012 0.0141052 0.0156504 0.0157012 0.0170218 0.0109215 0.0124018 0.0121655 0.013727 0.0124018 0.0139516 0.013727 0.0155177 0.0121655 0.013727 0.0140084 0.0154897 0.013727 0.0155177 0.0154897 0.0170691 0.0139516 0.0156251 0.0155177 0.0174039 0.0156251 0.0175871 0.0174039 0.0192745 0.0155177 0.0174039 0.0170691 0.0188907 0.0174039 0.0192745 0.0188907 0.0208714 0.0140084 0.0154897 0.0156504 0.0172741 0.0154897 0.0170691 0.0172741 0.0187922 0.0156504 0.0172741 0.0170218 0.0184025 0.0172741 0.0187922 0.0184025 0.0200208 0.0170691 0.0188907 0.0187922 0.0201735 0.0188907 0.0208714 0.0201735 0.0217172 0.0187922 0.0201735 0.0200208 0.0217897 0.0201735 0.0217172 0.0217897 0.0234396 0.0111847 0.0127363 0.0116909 0.0131422 0.0127363 0.0142728 0.0131422 0.0146831 0.0116909 0.0131422 0.0119164 0.0135329 0.0131422 0.0146831 0.0135329 0.0151099 0.0142728 0.0157012 0.0146831 0.016368 0.0157012 0.0170218 0.016368 0.0181217 0.0146831 0.016368 0.0151099 0.0166754 0.016368 0.0181217 0.0166754 0.0183615 0.0119164 0.0135329 0.0118709 0.0134824 0.0135329 0.0151099 0.0134824 0.0151811 0.0118709 0.0134824 0.0117918 0.0131875 0.0134824 0.0151811 0.0131875 0.014539 0.0151099 0.0166754 0.0151811 0.0168602 0.0166754 0.0183615 0.0168602 0.0183661 0.0151811 0.0168602 0.014539 0.0159782 0.0168602 0.0183661 0.0159782 0.0176014 0.0170218 0.0184025 0.0181217 0.0197796 0.0184025 0.0200208 0.0197796 0.0213262 0.0181217 0.0197796 0.0183615 0.0202372 0.0197796 0.0213262 0.0202372 0.022096 0.0200208 0.0217897 0.0213262 0.0229881 0.0217897 0.0234396 0.0229881 0.0248517 0.0213262 0.0229881 0.022096 0.0236343 0.0229881 0.0248517 0.0236343 0.0249618 0.0183615 0.0202372 0.0183661 0.0197306 0.0202372 0.022096 0.0197306 0.0212394 0.0183661 0.0197306 0.0176014 0.0192756 0.0197306 0.0212394 0.0192756 0.0207846 0.022096 0.0236343 0.0212394 0.0230532 0.0236343 0.0249618 0.0230532 0.024872 0.0212394 0.0230532 0.0207846 0.0222343 0.0230532 0.024872 0.0222343 0.0239987 0 0 0.00326932 0.00398521 0 0 0.00398521 0.00446951 0.00326932 0.00398521 0.00642778 0.00697376 0.00398521 0.00446951 0.00697376 0.00777482 0 0 0.00446951 0.00454202 0 0 0.00454202 0.00453236 0.00446951 0.00454202 0.00777482 0.00896517 0.00454202 0.00453236 0.00896517 0.0102694 0.00642778 0.00697376 0.00898174 0.0102061 0.00697376 0.00777482 0.0102061 0.0115965 0.00898174 0.0102061 0.0114759 0.0133654 0.0102061 0.0115965 0.0133654 0.0152586 0.00777482 0.00896517 0.0115965 0.0132255 0.00896517 0.0102694 0.0132255 0.0150799 0.0115965 0.0132255 0.0152586 0.0170005 0.0132255 0.0150799 0.0170005 0.0187532 0 0 0.00453236 0.00501108 0 0 0.00501108 0.0060848 0.00453236 0.00501108 0.0102694 0.0113222 0.00501108 0.0060848 0.0113222 0.0122193 0 0 0.0060848 0.00719448 0 0 0.00719448 0.00783797 0.0060848 0.00719448 0.0122193 0.0134232 0.00719448 0.00783797 0.0134232 0.015018 0.0102694 0.0113222 0.0150799 0.0169347 0.0113222 0.0122193 0.0169347 0.0185044 0.0150799 0.0169347 0.0187532 0.0208638 0.0169347 0.0185044 0.0208638 0.0233685 0.0122193 0.0134232 0.0185044 0.0198648 0.0134232 0.015018 0.0198648 0.0215128 0.0185044 0.0198648 0.0233685 0.0258274 0.0198648 0.0215128 0.0258274 0.0279637 0.0114759 0.0133654 0.0139278 0.0156721 0.0133654 0.0152586 0.0156721 0.0176149 0.0139278 0.0156721 0.0155836 0.0174418 0.0156721 0.0176149 0.0174418 0.019502 0.0152586 0.0170005 0.0176149 0.01977 0.0170005 0.0187532 0.01977 0.0220049 0.0176149 0.01977 0.019502 0.0218329 0.01977 0.0220049 0.0218329 0.0244538 0.0155836 0.0174418 0.0166141 0.0188017 0.0174418 0.019502 0.0188017 0.0211158 0.0166141 0.0188017 0.0175871 0.0199211 0.0188017 0.0211158 0.0199211 0.022496 0.019502 0.0218329 0.0211158 0.0236465 0.0218329 0.0244538 0.0236465 0.026462 0.0211158 0.0236465 0.022496 0.0251309 0.0236465 0.026462 0.0251309 0.0278106 0.0187532 0.0208638 0.0220049 0.0242579 0.0208638 0.0233685 0.0242579 0.0267954 0.0220049 0.0242579 0.0244538 0.0272783 0.0242579 0.0267954 0.0272783 0.0301318 0.0233685 0.0258274 0.0267954 0.0299029 0.0258274 0.0279637 0.0299029 0.0332189 0.0267954 0.0299029 0.0301318 0.0330092 0.0299029 0.0332189 0.0330092 0.0361735 0.0244538 0.0272783 0.026462 0.0294991 0.0272783 0.0301318 0.0294991 0.0325819 0.026462 0.0294991 0.0278106 0.0306369 0.0294991 0.0325819 0.0306369 0.0337276 0.0301318 0.0330092 0.0325819 0.0355386 0.0330092 0.0361735 0.0355386 0.0385357 0.0325819 0.0355386 0.0337276 0.0372103 0.0355386 0.0385357 0.0372103 0.0410022 0 0 0.00783797 0.00822089 0 0 0.00822089 0.00884504 0.00783797 0.00822089 0.015018 0.0165259 0.00822089 0.00884504 0.0165259 0.0177298 0 0 0.00884504 0.00978171 0 0 0.00978171 0.0108186 0.00884504 0.00978171 0.0177298 0.0190816 0.00978171 0.0108186 0.0190816 0.0208472 0.015018 0.0165259 0.0215128 0.0237257 0.0165259 0.0177298 0.0237257 0.0260944 0.0215128 0.0237257 0.0279637 0.0301796 0.0237257 0.0260944 0.0301796 0.0328467 0.0177298 0.0190816 0.0260944 0.028055 0.0190816 0.0208472 0.028055 0.0296085 0.0260944 0.028055 0.0328467 0.0354691 0.028055 0.0296085 0.0354691 0.037493 0 0 0.0108186 0.0118794 0 0 0.0118794 0.0126987 0.0108186 0.0118794 0.0208472 0.0225031 0.0118794 0.0126987 0.0225031 0.0235543 0 0 0.0126987 0.0127325 0 0 0.0127325 0.0121981 0.0126987 0.0127325 0.0235543 0.0242885 0.0127325 0.0121981 0.0242885 0.0251789 0.0208472 0.0225031 0.0296085 0.0311556 0.0225031 0.0235543 0.0311556 0.0330141 0.0296085 0.0311556 0.037493 0.0394897 0.0311556 0.0330141 0.0394897 0.0423173 0.0235543 0.0242885 0.0330141 0.0353282 0.0242885 0.0251789 0.0353282 0.0378363 0.0330141 0.0353282 0.0423173 0.0456374 0.0353282 0.0378363 0.0456374 0.0485191 0.0279637 0.0301796 0.0332189 0.0359875 0.0301796 0.0328467 0.0359875 0.0382726 0.0332189 0.0359875 0.0361735 0.0396746 0.0359875 0.0382726 0.0396746 0.0431497 0.0328467 0.0354691 0.0382726 0.0410505 0.0354691 0.037493 0.0410505 0.0446628 0.0382726 0.0410505 0.0431497 0.0466044 0.0410505 0.0446628 0.0466044 0.0505745 0.0361735 0.0396746 0.0385357 0.0421989 0.0396746 0.0431497 0.0421989 0.0467275 0.0385357 0.0421989 0.0410022 0.0447579 0.0421989 0.0467275 0.0447579 0.0484638 0.0431497 0.0466044 0.0467275 0.0511559 0.0466044 0.0505745 0.0511559 0.0546802 0.0467275 0.0511559 0.0484638 0.0524254 0.0511559 0.0546802 0.0524254 0.0563339 0.037493 0.0394897 0.0446628 0.048282 0.0394897 0.0423173 0.048282 0.0513137 0.0446628 0.048282 0.0505745 0.0548449 0.048282 0.0513137 0.0548449 0.0583323 0.0423173 0.0456374 0.0513137 0.0540666 0.0456374 0.0485191 0.0540666 0.0568533 0.0513137 0.0540666 0.0583323 0.0608954 0.0540666 0.0568533 0.0608954 0.0635635 0.0505745 0.0548449 0.0546802 0.0580466 0.0548449 0.0583323 0.0580466 0.0620491 0.0546802 0.0580466 0.0563339 0.0597542 0.0580466 0.0620491 0.0597542 0.0633962 0.0583323 0.0608954 0.0620491 0.0659434 0.0608954 0.0635635 0.0659434 0.0690168 0.0620491 0.0659434 0.0633962 0.0678801 0.0659434 0.0690168 0.0678801 0.072237 0.0175871 0.0199211 0.0192745 0.0212389 0.0199211 0.022496 0.0212389 0.0234851 0.0192745 0.0212389 0.0208714 0.0227365 0.0212389 0.0234851 0.0227365 0.0244873 0.022496 0.0251309 0.0234851 0.0259613 0.0251309 0.0278106 0.0259613 0.0284961 0.0234851 0.0259613 0.0244873 0.0265675 0.0259613 0.0284961 0.0265675 0.0292409 0.0208714 0.0227365 0.0217172 0.0237094 0.0227365 0.0244873 0.0237094 0.0259461 0.0217172 0.0237094 0.0234396 0.0250021 0.0237094 0.0259461 0.0250021 0.0268438 0.0244873 0.0265675 0.0259461 0.0280258 0.0265675 0.0292409 0.0280258 0.0300534 0.0259461 0.0280258 0.0268438 0.0289248 0.0280258 0.0300534 0.0289248 0.0306645 0.0278106 0.0306369 0.0284961 0.0312271 0.0306369 0.0337276 0.0312271 0.0344633 0.0284961 0.0312271 0.0292409 0.0321552 0.0312271 0.0344633 0.0321552 0.0349501 0.0337276 0.0372103 0.0344633 0.0381472 0.0372103 0.0410022 0.0381472 0.0419174 0.0344633 0.0381472 0.0349501 0.0377578 0.0381472 0.0419174 0.0377578 0.0407451 0.0292409 0.0321552 0.0300534 0.0323636 0.0321552 0.0349501 0.0323636 0.0347168 0.0300534 0.0323636 0.0306645 0.0320633 0.0323636 0.0347168 0.0320633 0.0339338 0.0349501 0.0377578 0.0347168 0.0368119 0.0377578 0.0407451 0.0368119 0.0391281 0.0347168 0.0368119 0.0339338 0.0363822 0.0368119 0.0391281 0.0363822 0.0387036 0.0234396 0.0250021 0.0248517 0.0265251 0.0250021 0.0268438 0.0265251 0.0277025 0.0248517 0.0265251 0.0249618 0.0265544 0.0265251 0.0277025 0.0265544 0.0284035 0.0268438 0.0289248 0.0277025 0.0288842 0.0289248 0.0306645 0.0288842 0.0306629 0.0277025 0.0288842 0.0284035 0.0299379 0.0288842 0.0306629 0.0299379 0.0312157 0.0249618 0.0265544 0.024872 0.0264345 0.0265544 0.0284035 0.0264345 0.028133 0.024872 0.0264345 0.0239987 0.0259649 0.0264345 0.028133 0.0259649 0.0275633 0.0284035 0.0299379 0.028133 0.030249 0.0299379 0.0312157 0.030249 0.0321031 0.028133 0.030249 0.0275633 0.0289169 0.030249 0.0321031 0.0289169 0.0306931 0.0306645 0.0320633 0.0306629 0.0326056 0.0320633 0.0339338 0.0326056 0.0341878 0.0306629 0.0326056 0.0312157 0.0329853 0.0326056 0.0341878 0.0329853 0.0349961 0.0339338 0.0363822 0.0341878 0.0360514 0.0363822 0.0387036 0.0360514 0.0384968 0.0341878 0.0360514 0.0349961 0.0363534 0.0360514 0.0384968 0.0363534 0.0377066 0.0312157 0.0329853 0.0321031 0.0332455 0.0329853 0.0349961 0.0332455 0.0345826 0.0321031 0.0332455 0.0306931 0.0325457 0.0332455 0.0345826 0.0325457 0.0335294 0.0349961 0.0363534 0.0345826 0.0363375 0.0363534 0.0377066 0.0363375 0.0372725 0.0345826 0.0363375 0.0335294 0.0343447 0.0363375 0.0372725 0.0343447 0.0356304 0.0410022 0.0447579 0.0419174 0.0454632 0.0447579 0.0484638 0.0454632 0.0486342 0.0419174 0.0454632 0.0407451 0.0439389 0.0454632 0.0486342 0.0439389 0.0474132 0.0484638 0.0524254 0.0486342 0.0518398 0.0524254 0.0563339 0.0518398 0.0558025 0.0486342 0.0518398 0.0474132 0.0509695 0.0518398 0.0558025 0.0509695 0.0545322 0.0407451 0.0439389 0.0391281 0.042109 0.0439389 0.0474132 0.042109 0.0455339 0.0391281 0.042109 0.0387036 0.0409921 0.042109 0.0455339 0.0409921 0.0437693 0.0474132 0.0509695 0.0455339 0.0491876 0.0509695 0.0545322 0.0491876 0.0528534 0.0455339 0.0491876 0.0437693 0.0469258 0.0491876 0.0528534 0.0469258 0.0503119 0.0563339 0.0597542 0.0558025 0.0601404 0.0597542 0.0633962 0.0601404 0.0638897 0.0558025 0.0601404 0.0545322 0.0586559 0.0601404 0.0638897 0.0586559 0.0631571 0.0633962 0.0678801 0.0638897 0.0676529 0.0678801 0.072237 0.0676529 0.0723978 0.0638897 0.0676529 0.0631571 0.0670068 0.0676529 0.0723978 0.0670068 0.0705704 0.0545322 0.0586559 0.0528534 0.0564635 0.0586559 0.0631571 0.0564635 0.0605508 0.0528534 0.0564635 0.0503119 0.0536337 0.0564635 0.0605508 0.0536337 0.0565995 0.0631571 0.0670068 0.0605508 0.0647483 0.0670068 0.0705704 0.0647483 0.0678493 0.0605508 0.0647483 0.0565995 0.0599198 0.0647483 0.0678493 0.0599198 0.0637051 0.0387036 0.0409921 0.0384968 0.0406607 0.0409921 0.0437693 0.0406607 0.04254 0.0384968 0.0406607 0.0377066 0.0397656 0.0406607 0.04254 0.0397656 0.0414541 0.0437693 0.0469258 0.04254 0.0447906 0.0469258 0.0503119 0.0447906 0.0471813 0.04254 0.0447906 0.0414541 0.0424759 0.0447906 0.0471813 0.0424759 0.0437373 0.0377066 0.0397656 0.0372725 0.0377915 0.0397656 0.0414541 0.0377915 0.0390122 0.0372725 0.0377915 0.0356304 0.0360707 0.0377915 0.0390122 0.0360707 0.0361317 0.0414541 0.0424759 0.0390122 0.0400367 0.0424759 0.0437373 0.0400367 0.0406928 0.0390122 0.0400367 0.0361317 0.0372973 0.0400367 0.0406928 0.0372973 0.0383892 0.0503119 0.0536337 0.0471813 0.0495358 0.0536337 0.0565995 0.0495358 0.0519248 0.0471813 0.0495358 0.0437373 0.0453549 0.0495358 0.0519248 0.0453549 0.0473881 0.0565995