<?xml version="1.0" ?> 
<!-- 
# vtk DataFile Version 3.0
#This file was generated by the deal.II library on 21:46:17 at 2021/4/29
-->
<VTKFile type="UnstructuredGrid" version="0.1" byte_order="LittleEndian">
<UnstructuredGrid>
<Piece NumberOfPoints="65536" NumberOfCells="16384" >
  <Points>
    <DataArray type="Float32" NumberOfComponents="3" format="ascii">
-1 -1 0
-0.984375 -1 0
-1 -0.984375 0
-0.984375 -0.984375 0
-0.984375 -1 0
-0.96875 -1 0
-0.984375 -0.984375 0
-0.96875 -0.984375 0
-1 -0.984375 0
-0.984375 -0.984375 0
-1 -0.96875 0
-0.984375 -0.96875 0
-0.984375 -0.984375 0
-0.96875 -0.984375 0
-0.984375 -0.96875 0
-0.96875 -0.96875 0
-0.96875 -1 0
-0.953125 -1 0
-0.96875 -0.984375 0
-0.953125 -0.984375 0
-0.953125 -1 0
-0.9375 -1 0
-0.953125 -0.984375 0
-0.9375 -0.984375 0
-0.96875 -0.984375 0
-0.953125 -0.984375 0
-0.96875 -0.96875 0
-0.953125 -0.96875 0
-0.953125 -0.984375 0
-0.9375 -0.984375 0
-0.953125 -0.96875 0
-0.9375 -0.96875 0
-1 -0.96875 0
-0.984375 -0.96875 0
-1 -0.953125 0
-0.984375 -0.953125 0
-0.984375 -0.96875 0
-0.96875 -0.96875 0
-0.984375 -0.953125 0
-0.96875 -0.953125 0
-1 -0.953125 0
-0.984375 -0.953125 0
-1 -0.9375 0
-0.984375 -0.9375 0
-0.984375 -0.953125 0
-0.96875 -0.953125 0
-0.984375 -0.9375 0
-0.96875 -0.9375 0
-0.96875 -0.96875 0
-0.953125 -0.96875 0
-0.96875 -0.953125 0
-0.953125 -0.953125 0
-0.953125 -0.96875 0
-0.9375 -0.96875 0
-0.953125 -0.953125 0
-0.9375 -0.953125 0
-0.96875 -0.953125 0
-0.953125 -0.953125 0
-0.96875 -0.9375 0
-0.953125 -0.9375 0
-0.953125 -0.953125 0
-0.9375 -0.953125 0
-0.953125 -0.9375 0
-0.9375 -0.9375 0
-0.9375 -1 0
-0.921875 -1 0
-0.9375 -0.984375 0
-0.921875 -0.984375 0
-0.921875 -1 0
-0.90625 -1 0
-0.921875 -0.984375 0
-0.90625 -0.984375 0
-0.9375 -0.984375 0
-0.921875 -0.984375 0
-0.9375 -0.96875 0
-0.921875 -0.96875 0
-0.921875 -0.984375 0
-0.90625 -0.984375 0
-0.921875 -0.96875 0
-0.90625 -0.96875 0
-0.90625 -1 0
-0.890625 -1 0
-0.90625 -0.984375 0
-0.890625 -0.984375 0
-0.890625 -1 0
-0.875 -1 0
-0.890625 -0.984375 0
-0.875 -0.984375 0
-0.90625 -0.984375 0
-0.890625 -0.984375 0
-0.90625 -0.96875 0
-0.890625 -0.96875 0
-0.890625 -0.984375 0
-0.875 -0.984375 0
-0.890625 -0.96875 0
-0.875 -0.96875 0
-0.9375 -0.96875 0
-0.921875 -0.96875 0
-0.9375 -0.953125 0
-0.921875 -0.953125 0
-0.921875 -0.96875 0
-0.90625 -0.96875 0
-0.921875 -0.953125 0
-0.90625 -0.953125 0
-0.9375 -0.953125 0
-0.921875 -0.953125 0
-0.9375 -0.9375 0
-0.921875 -0.9375 0
-0.921875 -0.953125 0
-0.90625 -0.953125 0
-0.921875 -0.9375 0
-0.90625 -0.9375 0
-0.90625 -0.96875 0
-0.890625 -0.96875 0
-0.90625 -0.953125 0
-0.890625 -0.953125 0
-0.890625 -0.96875 0
-0.875 -0.96875 0
-0.890625 -0.953125 0
-0.875 -0.953125 0
-0.90625 -0.953125 0
-0.890625 -0.953125 0
-0.90625 -0.9375 0
-0.890625 -0.9375 0
-0.890625 -0.953125 0
-0.875 -0.953125 0
-0.890625 -0.9375 0
-0.875 -0.9375 0
-1 -0.9375 0
-0.984375 -0.9375 0
-1 -0.921875 0
-0.984375 -0.921875 0
-0.984375 -0.9375 0
-0.96875 -0.9375 0
-0.984375 -0.921875 0
-0.96875 -0.921875 0
-1 -0.921875 0
-0.984375 -0.921875 0
-1 -0.90625 0
-0.984375 -0.90625 0
-0.984375 -0.921875 0
-0.96875 -0.921875 0
-0.984375 -0.90625 0
-0.96875 -0.90625 0
-0.96875 -0.9375 0
-0.953125 -0.9375 0
-0.96875 -0.921875 0
-0.953125 -0.921875 0
-0.953125 -0.9375 0
-0.9375 -0.9375 0
-0.953125 -0.921875 0
-0.9375 -0.921875 0
-0.96875 -0.921875 0
-0.953125 -0.921875 0
-0.96875 -0.90625 0
-0.953125 -0.90625 0
-0.953125 -0.921875 0
-0.9375 -0.921875 0
-0.953125 -0.90625 0
-0.9375 -0.90625 0
-1 -0.90625 0
-0.984375 -0.90625 0
-1 -0.890625 0
-0.984375 -0.890625 0
-0.984375 -0.90625 0
-0.96875 -0.90625 0
-0.984375 -0.890625 0
-0.96875 -0.890625 0
-1 -0.890625 0
-0.984375 -0.890625 0
-1 -0.875 0
-0.984375 -0.875 0
-0.984375 -0.890625 0
-0.96875 -0.890625 0
-0.984375 -0.875 0
-0.96875 -0.875 0
-0.96875 -0.90625 0
-0.953125 -0.90625 0
-0.96875 -0.890625 0
-0.953125 -0.890625 0
-0.953125 -0.90625 0
-0.9375 -0.90625 0
-0.953125 -0.890625 0
-0.9375 -0.890625 0
-0.96875 -0.890625 0
-0.953125 -0.890625 0
-0.96875 -0.875 0
-0.953125 -0.875 0
-0.953125 -0.890625 0
-0.9375 -0.890625 0
-0.953125 -0.875 0
-0.9375 -0.875 0
-0.9375 -0.9375 0
-0.921875 -0.9375 0
-0.9375 -0.921875 0
-0.921875 -0.921875 0
-0.921875 -0.9375 0
-0.90625 -0.9375 0
-0.921875 -0.921875 0
-0.90625 -0.921875 0
-0.9375 -0.921875 0
-0.921875 -0.921875 0
-0.9375 -0.90625 0
-0.921875 -0.90625 0
-0.921875 -0.921875 0
-0.90625 -0.921875 0
-0.921875 -0.90625 0
-0.90625 -0.90625 0
-0.90625 -0.9375 0
-0.890625 -0.9375 0
-0.90625 -0.921875 0
-0.890625 -0.921875 0
-0.890625 -0.9375 0
-0.875 -0.9375 0
-0.890625 -0.921875 0
-0.875 -0.921875 0
-0.90625 -0.921875 0
-0.890625 -0.921875 0
-0.90625 -0.90625 0
-0.890625 -0.90625 0
-0.890625 -0.921875 0
-0.875 -0.921875 0
-0.890625 -0.90625 0
-0.875 -0.90625 0
-0.9375 -0.90625 0
-0.921875 -0.90625 0
-0.9375 -0.890625 0
-0.921875 -0.890625 0
-0.921875 -0.90625 0
-0.90625 -0.90625 0
-0.921875 -0.890625 0
-0.90625 -0.890625 0
-0.9375 -0.890625 0
-0.921875 -0.890625 0
-0.9375 -0.875 0
-0.921875 -0.875 0
-0.921875 -0.890625 0
-0.90625 -0.890625 0
-0.921875 -0.875 0
-0.90625 -0.875 0
-0.90625 -0.90625 0
-0.890625 -0.90625 0
-0.90625 -0.890625 0
-0.890625 -0.890625 0
-0.890625 -0.90625 0
-0.875 -0.90625 0
-0.890625 -0.890625 0
-0.875 -0.890625 0
-0.90625 -0.890625 0
-0.890625 -0.890625 0
-0.90625 -0.875 0
-0.890625 -0.875 0
-0.890625 -0.890625 0
-0.875 -0.890625 0
-0.890625 -0.875 0
-0.875 -0.875 0
-0.875 -1 0
-0.859375 -1 0
-0.875 -0.984375 0
-0.859375 -0.984375 0
-0.859375 -1 0
-0.84375 -1 0
-0.859375 -0.984375 0
-0.84375 -0.984375 0
-0.875 -0.984375 0
-0.859375 -0.984375 0
-0.875 -0.96875 0
-0.859375 -0.96875 0
-0.859375 -0.984375 0
-0.84375 -0.984375 0
-0.859375 -0.96875 0
-0.84375 -0.96875 0
-0.84375 -1 0
-0.828125 -1 0
-0.84375 -0.984375 0
-0.828125 -0.984375 0
-0.828125 -1 0
-0.8125 -1 0
-0.828125 -0.984375 0
-0.8125 -0.984375 0
-0.84375 -0.984375 0
-0.828125 -0.984375 0
-0.84375 -0.96875 0
-0.828125 -0.96875 0
-0.828125 -0.984375 0
-0.8125 -0.984375 0
-0.828125 -0.96875 0
-0.8125 -0.96875 0
-0.875 -0.96875 0
-0.859375 -0.96875 0
-0.875 -0.953125 0
-0.859375 -0.953125 0
-0.859375 -0.96875 0
-0.84375 -0.96875 0
-0.859375 -0.953125 0
-0.84375 -0.953125 0
-0.875 -0.953125 0
-0.859375 -0.953125 0
-0.875 -0.9375 0
-0.859375 -0.9375 0
-0.859375 -0.953125 0
-0.84375 -0.953125 0
-0.859375 -0.9375 0
-0.84375 -0.9375 0
-0.84375 -0.96875 0
-0.828125 -0.96875 0
-0.84375 -0.953125 0
-0.828125 -0.953125 0
-0.828125 -0.96875 0
-0.8125 -0.96875 0
-0.828125 -0.953125 0
-0.8125 -0.953125 0
-0.84375 -0.953125 0
-0.828125 -0.953125 0
-0.84375 -0.9375 0
-0.828125 -0.9375 0
-0.828125 -0.953125 0
-0.8125 -0.953125 0
-0.828125 -0.9375 0
-0.8125 -0.9375 0
-0.8125 -1 0
-0.796875 -1 0
-0.8125 -0.984375 0
-0.796875 -0.984375 0
-0.796875 -1 0
-0.78125 -1 0
-0.796875 -0.984375 0
-0.78125 -0.984375 0
-0.8125 -0.984375 0
-0.796875 -0.984375 0
-0.8125 -0.96875 0
-0.796875 -0.96875 0
-0.796875 -0.984375 0
-0.78125 -0.984375 0
-0.796875 -0.96875 0
-0.78125 -0.96875 0
-0.78125 -1 0
-0.765625 -1 0
-0.78125 -0.984375 0
-0.765625 -0.984375 0
-0.765625 -1 0
-0.75 -1 0
-0.765625 -0.984375 0
-0.75 -0.984375 0
-0.78125 -0.984375 0
-0.765625 -0.984375 0
-0.78125 -0.96875 0
-0.765625 -0.96875 0
-0.765625 -0.984375 0
-0.75 -0.984375 0
-0.765625 -0.96875 0
-0.75 -0.96875 0
-0.8125 -0.96875 0
-0.796875 -0.96875 0
-0.8125 -0.953125 0
-0.796875 -0.953125 0
-0.796875 -0.96875 0
-0.78125 -0.96875 0
-0.796875 -0.953125 0
-0.78125 -0.953125 0
-0.8125 -0.953125 0
-0.796875 -0.953125 0
-0.8125 -0.9375 0
-0.796875 -0.9375 0
-0.796875 -0.953125 0
-0.78125 -0.953125 0
-0.796875 -0.9375 0
-0.78125 -0.9375 0
-0.78125 -0.96875 0
-0.765625 -0.96875 0
-0.78125 -0.953125 0
-0.765625 -0.953125 0
-0.765625 -0.96875 0
-0.75 -0.96875 0
-0.765625 -0.953125 0
-0.75 -0.953125 0
-0.78125 -0.953125 0
-0.765625 -0.953125 0
-0.78125 -0.9375 0
-0.765625 -0.9375 0
-0.765625 -0.953125 0
-0.75 -0.953125 0
-0.765625 -0.9375 0
-0.75 -0.9375 0
-0.875 -0.9375 0
-0.859375 -0.9375 0
-0.875 -0.921875 0
-0.859375 -0.921875 0
-0.859375 -0.9375 0
-0.84375 -0.9375 0
-0.859375 -0.921875 0
-0.84375 -0.921875 0
-0.875 -0.921875 0
-0.859375 -0.921875 0
-0.875 -0.90625 0
-0.859375 -0.90625 0
-0.859375 -0.921875 0
-0.84375 -0.921875 0
-0.859375 -0.90625 0
-0.84375 -0.90625 0
-0.84375 -0.9375 0
-0.828125 -0.9375 0
-0.84375 -0.921875 0
-0.828125 -0.921875 0
-0.828125 -0.9375 0
-0.8125 -0.9375 0
-0.828125 -0.921875 0
-0.8125 -0.921875 0
-0.84375 -0.921875 0
-0.828125 -0.921875 0
-0.84375 -0.90625 0
-0.828125 -0.90625 0
-0.828125 -0.921875 0
-0.8125 -0.921875 0
-0.828125 -0.90625 0
-0.8125 -0.90625 0
-0.875 -0.90625 0
-0.859375 -0.90625 0
-0.875 -0.890625 0
-0.859375 -0.890625 0
-0.859375 -0.90625 0
-0.84375 -0.90625 0
-0.859375 -0.890625 0
-0.84375 -0.890625 0
-0.875 -0.890625 0
-0.859375 -0.890625 0
-0.875 -0.875 0
-0.859375 -0.875 0
-0.859375 -0.890625 0
-0.84375 -0.890625 0
-0.859375 -0.875 0
-0.84375 -0.875 0
-0.84375 -0.90625 0
-0.828125 -0.90625 0
-0.84375 -0.890625 0
-0.828125 -0.890625 0
-0.828125 -0.90625 0
-0.8125 -0.90625 0
-0.828125 -0.890625 0
-0.8125 -0.890625 0
-0.84375 -0.890625 0
-0.828125 -0.890625 0
-0.84375 -0.875 0
-0.828125 -0.875 0
-0.828125 -0.890625 0
-0.8125 -0.890625 0
-0.828125 -0.875 0
-0.8125 -0.875 0
-0.8125 -0.9375 0
-0.796875 -0.9375 0
-0.8125 -0.921875 0
-0.796875 -0.921875 0
-0.796875 -0.9375 0
-0.78125 -0.9375 0
-0.796875 -0.921875 0
-0.78125 -0.921875 0
-0.8125 -0.921875 0
-0.796875 -0.921875 0
-0.8125 -0.90625 0
-0.796875 -0.90625 0
-0.796875 -0.921875 0
-0.78125 -0.921875 0
-0.796875 -0.90625 0
-0.78125 -0.90625 0
-0.78125 -0.9375 0
-0.765625 -0.9375 0
-0.78125 -0.921875 0
-0.765625 -0.921875 0
-0.765625 -0.9375 0
-0.75 -0.9375 0
-0.765625 -0.921875 0
-0.75 -0.921875 0
-0.78125 -0.921875 0
-0.765625 -0.921875 0
-0.78125 -0.90625 0
-0.765625 -0.90625 0
-0.765625 -0.921875 0
-0.75 -0.921875 0
-0.765625 -0.90625 0
-0.75 -0.90625 0
-0.8125 -0.90625 0
-0.796875 -0.90625 0
-0.8125 -0.890625 0
-0.796875 -0.890625 0
-0.796875 -0.90625 0
[...]
  <PointData Scalars="scalars">
    <DataArray type="Float32" Name="U" format="ascii">
0 0 0 0.0120423 0 0 0.0120423 0.0232661 0 0.0120423 0 0.0240292 0.0120423 0.0232661 0.0240292 0.0464214 0 0 0.0232661 0.0329771 0 0 0.0329771 0.0406723 0.0232661 0.0329771 0.0464214 0.0658021 0.0329771 0.0406723 0.0658021 0.0811433 0 0.0240292 0 0.0359074 0.0240292 0.0464214 0.0359074 0.0693647 0 0.0359074 0 0.0476231 0.0359074 0.0693647 0.0476231 0.0920141 0.0464214 0.0658021 0.0693647 0.0983372 0.0658021 0.0811433 0.0983372 0.121252 0.0693647 0.0983372 0.0920141 0.130427 0.0983372 0.121252 0.130427 0.160839 0 0 0.0406723 0.0459189 0 0 0.0459189 0.0483208 0.0406723 0.0459189 0.0811433 0.091615 0.0459189 0.0483208 0.091615 0.0963795 0 0 0.0483208 0.0474115 0 0 0.0474115 0.0429638 0.0483208 0.0474115 0.0963795 0.0945869 0.0474115 0.0429638 0.0945869 0.0856992 0.0811433 0.091615 0.121252 0.136911 0.091615 0.0963795 0.136911 0.144018 0.121252 0.136911 0.160839 0.181551 0.136911 0.144018 0.181551 0.190993 0.0963795 0.0945869 0.144018 0.141378 0.0945869 0.0856992 0.141378 0.128153 0.144018 0.141378 0.190993 0.187451 0.141378 0.128153 0.187451 0.170062 0 0.0476231 0 0.0591336 0.0476231 0.0920141 0.0591336 0.114257 0 0.0591336 0 0.0703936 0.0591336 0.114257 0.0703936 0.136014 0.0920141 0.130427 0.114257 0.161977 0.130427 0.160839 0.161977 0.199738 0.114257 0.161977 0.136014 0.192859 0.161977 0.199738 0.192859 0.2378 0 0.0703936 0 0.081332 0.0703936 0.136014 0.081332 0.157192 0 0.081332 0 0.0919224 0.081332 0.157192 0.0919224 0.177688 0.136014 0.192859 0.157192 0.222891 0.192859 0.2378 0.222891 0.274892 0.157192 0.222891 0.177688 0.252013 0.222891 0.274892 0.252013 0.310838 0.160839 0.181551 0.199738 0.22547 0.181551 0.190993 0.22547 0.237177 0.199738 0.22547 0.2378 0.268449 0.22547 0.237177 0.268449 0.282348 0.190993 0.187451 0.237177 0.232882 0.187451 0.170062 0.232882 0.211454 0.237177 0.232882 0.282348 0.277346 0.232882 0.211454 0.277346 0.252067 0.2378 0.268449 0.274892 0.310274 0.268449 0.282348 0.310274 0.326417 0.274892 0.310274 0.310838 0.350879 0.310274 0.326417 0.350879 0.369138 0.282348 0.277346 0.326417 0.320703 0.277346 0.252067 0.320703 0.291949 0.326417 0.320703 0.369138 0.362873 0.320703 0.291949 0.362873 0.330779 0 0 0.0429638 0.0351206 0 0 0.0351206 0.0248529 0.0429638 0.0351206 0.0856992 0.0701404 0.0351206 0.0248529 0.0701404 0.0496743 0 0 0.0248529 0.0136163 0 0 0.0136163 0.00322967 0.0248529 0.0136163 0.0496743 0.0274027 0.0136163 0.00322967 0.0274027 0.00664839 0.0856992 0.0701404 0.128153 0.105034 0.0701404 0.0496743 0.105034 0.0745898 0.128153 0.105034 0.170062 0.139538 0.105034 0.0745898 0.139538 0.099516 0.0496743 0.0274027 0.0745898 0.0414087 0.0274027 0.00664839 0.0414087 0.0103922 0.0745898 0.0414087 0.099516 0.0556892 0.0414087 0.0103922 0.0556892 0.0147375 0 0 0.00322967 -0.00522231 0 0 -0.00522231 -0.0114004 0.00322967 -0.00522231 0.00664839 -0.0101146 -0.00522231 -0.0114004 -0.0101146 -0.0226311 0 0 -0.0114004 -0.0162417 0 0 -0.0162417 -0.0206298 -0.0114004 -0.0162417 -0.0226311 -0.0322672 -0.0162417 -0.0206298 -0.0322672 -0.041315 0.00664839 -0.0101146 0.0103922 -0.0148537 -0.0101146 -0.0226311 -0.0148537 -0.0338036 0.0103922 -0.0148537 0.0147375 -0.0189949 -0.0148537 -0.0338036 -0.0189949 -0.0444512 -0.0226311 -0.0322672 -0.0338036 -0.0485451 -0.0322672 -0.041315 -0.0485451 -0.0621151 -0.0338036 -0.0485451 -0.0444512 -0.0646086 -0.0485451 -0.0621151 -0.0646086 -0.0829399 0.170062 0.139538 0.211454 0.173968 0.139538 0.099516 0.173968 0.124663 0.211454 0.173968 0.252067 0.207973 0.173968 0.124663 0.207973 0.149911 0.099516 0.0556892 0.124663 0.0706949 0.0556892 0.0147375 0.0706949 0.0198159 0.124663 0.0706949 0.149911 0.0862651 0.0706949 0.0198159 0.0862651 0.0258967 0.252067 0.207973 0.291949 0.241585 0.207973 0.149911 0.241585 0.175455 0.291949 0.241585 0.330779 0.274719 0.241585 0.175455 0.274719 0.200955 0.149911 0.0862651 0.175455 0.102539 0.0862651 0.0258967 0.102539 0.0330929 0.175455 0.102539 0.200955 0.119523 0.102539 0.0330929 0.119523 0.0411974 0.0147375 -0.0189949 0.0198159 -0.0223228 -0.0189949 -0.0444512 -0.0223228 -0.0548016 0.0198159 -0.0223228 0.0258967 -0.0246603 -0.0223228 -0.0548016 -0.0246603 -0.0642063 -0.0444512 -0.0646086 -0.0548016 -0.0804854 -0.0646086 -0.0829399 -0.0804854 -0.103918 -0.0548016 -0.0804854 -0.0642063 -0.0959341 -0.0804854 -0.103918 -0.0959341 -0.124523 0.0258967 -0.0246603 0.0330929 -0.0260355 -0.0246603 -0.0642063 -0.0260355 -0.0729093 0.0330929 -0.0260355 0.0411974 -0.0262252 -0.0260355 -0.0729093 -0.0262252 -0.0808998 -0.0642063 -0.0959341 -0.0729093 -0.111147 -0.0959341 -0.124523 -0.111147 -0.145074 -0.0729093 -0.111147 -0.0808998 -0.125804 -0.111147 -0.145074 -0.125804 -0.165581 0 0.0919224 0 0.10208 0.0919224 0.177688 0.10208 0.197355 0 0.10208 0 0.111777 0.10208 0.197355 0.111777 0.21618 0.177688 0.252013 0.197355 0.28 0.252013 0.310838 0.28 0.345403 0.197355 0.28 0.21618 0.306799 0.28 0.345403 0.306799 0.378597 0 0.111777 0 0.120976 0.111777 0.21618 0.120976 0.234055 0 0.120976 0 0.129636 0.120976 0.234055 0.129636 0.250922 0.21618 0.306799 0.234055 0.332325 0.306799 0.378597 0.332325 0.410266 0.234055 0.332325 0.250922 0.356488 0.332325 0.410266 0.356488 0.440341 0.310838 0.350879 0.345403 0.389961 0.350879 0.369138 0.389961 0.410278 0.345403 0.389961 0.378597 0.427481 0.389961 0.410278 0.427481 0.449874 0.369138 0.362873 0.410278 0.40356 0.362873 0.330779 0.40356 0.36843 0.410278 0.40356 0.449874 0.442725 0.40356 0.36843 0.442725 0.404907 0.378597 0.427481 0.410266 0.463389 0.427481 0.449874 0.463389 0.487817 0.410266 0.463389 0.440341 0.497587 0.463389 0.487817 0.497587 0.524054 0.449874 0.442725 0.487817 0.480433 0.442725 0.404907 0.480433 0.440217 0.487817 0.480433 0.524054 0.516567 0.480433 0.440217 0.516567 0.474275 0 0.129636 0 0.137697 0.129636 0.250922 0.137697 0.266668 0 0.137697 0 0.145131 0.137697 0.266668 0.145131 0.281249 0.250922 0.356488 0.266668 0.379137 0.356488 0.440341 0.379137 0.468652 0.266668 0.379137 0.281249 0.40022 0.379137 0.468652 0.40022 0.49516 0 0.145131 0 0.151917 0.145131 0.281249 0.151917 0.294631 0 0.151917 0 0.15801 0.151917 0.294631 0.15801 0.306719 0.281249 0.40022 0.294631 0.419705 0.40022 0.49516 0.419705 0.519858 0.294631 0.419705 0.306719 0.437481 0.419705 0.519858 0.437481 0.542594 0.440341 0.497587 0.468652 0.529907 0.497587 0.524054 0.529907 0.558415 0.468652 0.529907 0.49516 0.560318 0.529907 0.558415 0.560318 0.590905 0.524054 0.516567 0.558415 0.550976 0.516567 0.474275 0.550976 0.506914 0.558415 0.550976 0.590905 0.583657 0.550976 0.506914 0.583657 0.538147 0.49516 0.560318 0.519858 0.588852 0.560318 0.590905 0.588852 0.621597 0.519858 0.588852 0.542594 0.615379 0.588852 0.621597 0.615379 0.650332 0.590905 0.583657 0.621597 0.614725 0.583657 0.538147 0.614725 0.568084 0.621597 0.614725 0.650332 0.644054 0.614725 0.568084 0.644054 0.596569 0.330779 0.274719 0.36843 0.307175 0.274719 0.200955 0.307175 0.226476 0.36843 0.307175 0.404907 0.338851 0.307175 0.226476 0.338851 0.251918 0.200955 0.119523 0.226476 0.137119 0.119523 0.0411974 0.137119 0.0504079 0.226476 0.137119 0.251918 0.155183 0.137119 0.0504079 0.155183 0.0605917 0.404907 0.338851 0.440217 0.369984 0.338851 0.251918 0.369984 0.277449 0.440217 0.369984 0.474275 0.400356 0.369984 0.277449 0.400356 0.302888 0.251918 0.155183 0.277449 0.17411 0.155183 0.0605917 0.17411 0.0720446 0.277449 0.17411 0.302888 0.193586 0.17411 0.0720446 0.193586 0.0845909 0.0411974 -0.0262252 0.0504079 -0.0253651 -0.0262252 -0.0808998 -0.0253651 -0.0879893 0.0504079 -0.0253651 0.0605917 -0.0234591 -0.0253651 -0.0879893 -0.0234591 -0.0941577 -0.0808998 -0.125804 -0.0879893 -0.140131 -0.125804 -0.165581 -0.140131 -0.185796 -0.0879893 -0.140131 -0.0941577 -0.153822 -0.140131 -0.185796 -0.153822 -0.205539 0.0605917 -0.0234591 0.0720446 -0.0200516 -0.0234591 -0.0941577 -0.0200516 -0.0990927 0.0720446 -0.0200516 0.0845909 -0.0153366 -0.0200516 -0.0990927 -0.0153366 -0.10269 -0.0941577 -0.153822 -0.0990927 -0.166526 -0.153822 -0.205539 -0.166526 -0.224581 -0.0990927 -0.166526 -0.10269 -0.178061 -0.166526 -0.224581 -0.178061 -0.242487 0.474275 0.400356 0.506914 0.429814 0.400356 0.302888 0.429814 0.32802 0.506914 0.429814 0.538147 0.458308 0.429814 0.32802 0.458308 0.352808 0.302888 0.193586 0.32802 0.213412 0.193586 0.0845909 0.213412 0.0979601 0.32802 0.213412 0.352808 0.233477 0.213412 0.0979601 0.233477 0.112135 0.538147 0.458308 0.568084 0.485948 0.458308 0.352808 0.485948 0.37728 0.568084 0.485948 0.596569 0.5126 0.485948 0.37728 0.5126 0.401272 0.352808 0.233477 0.37728 0.253816 0.233477 0.112135 0.253816 0.127085 0.37728 0.253816 0.401272 0.27428 0.253816 0.127085 0.27428 0.142672 0.0845909 -0.0153366 0.0979601 -0.00951661 -0.0153366 -0.10269 -0.00951661 -0.105201 0.0979601 -0.00951661 0.112135 -0.00261691 -0.00951661 -0.105201 -0.00261691 -0.106441 -0.10269 -0.178061 -0.105201 -0.188572 -0.178061 -0.242487 -0.188572 -0.259442 -0.105201 -0.188572 -0.106441 -0.197862 -0.188572 -0.259442 -0.197862 -0.275074 0.112135 -0.00261691 0.127085 0.00549348 -0.00261691 -0.106441 0.00549348 -0.10625 0.127085 0.00549348 0.142672 0.0146745 0.00549348 -0.10625 0.0146745 -0.104711 -0.106441 -0.197862 -0.10625 -0.205494 -0.197862 -0.275074 -0.205494 -0.28902 -0.10625 -0.205494 -0.104711 -0.211614 -0.205494 -0.28902 -0.211614 -0.301307 0 0 -0.0206298 -0.0252718 0 0 -0.0252718 -0.0293842 -0.0206298 -0.0252718 -0.041315 -0.0504938 -0.0252718 -0.0293842 -0.0504938 -0.0589221 0 0 -0.0293842 -0.0319116 0 0 -0.0319116 -0.0314942 -0.0293842 -0.0319116 -0.0589221 -0.0637122 -0.0319116 -0.0314942 -0.0637122 -0.062983 -0.041315 -0.0504938 -0.0621151 -0.0758453 -0.0504938 -0.0589221 -0.0758453 -0.0880573 -0.0621151 -0.0758453 -0.0829399 -0.101343 -0.0758453 -0.0880573 -0.101343 -0.117305 -0.0589221 -0.0637122 -0.0880573 -0.0951374 -0.0637122 -0.062983 -0.0951374 -0.0938214 -0.0880573 -0.0951374 -0.117305 -0.126339 -0.0951374 -0.0938214 -0.126339 -0.124257 0 0 -0.0314942 -0.0282208 0 0 -0.0282208 -0.0227847 -0.0314942 -0.0282208 -0.062983 -0.0561682 -0.0282208 -0.0227847 -0.0561682 -0.0454783 0 0 -0.0227847 -0.0165944 0 0 -0.0165944 -0.010381 -0.0227847 -0.0165944 -0.0454783 -0.0331088 -0.0165944 -0.010381 -0.0331088 -0.0209528 -0.062983 -0.0561682 -0.0938214 -0.0839984 -0.0561682 -0.0454783 -0.0839984 -0.068059 -0.0938214 -0.0839984 -0.124257 -0.111039 -0.0839984 -0.068059 -0.111039 -0.0901294 -0.0454783 -0.0331088 -0.068059 -0.0499137 -0.0331088 -0.0209528 -0.0499137 -0.0315556 -0.068059 -0.0499137 -0.0901294 -0.0662571 -0.0499137 -0.0315556 -0.0662571 -0.0424542 -0.0829399 -0.101343 -0.103918 -0.126544 -0.101343 -0.117305 -0.126544 -0.146059 -0.103918 -0.126544 -0.124523 -0.151688 -0.126544 -0.146059 -0.151688 -0.174226 -0.117305 -0.126339 -0.146059 -0.156501 -0.126339 -0.124257 -0.156501 -0.15383 -0.146059 -0.156501 -0.174226 -0.186037 -0.156501 -0.15383 -0.186037 -0.182093 -0.124523 -0.151688 -0.145074 -0.176575 -0.151688 -0.174226 -0.176575 -0.201789 -0.145074 -0.176575 -0.165581 -0.201189 -0.176575 -0.201789 -0.201189 -0.228991 -0.174226 -0.186037 -0.201789 -0.214422 -0.186037 -0.182093 -0.214422 -0.20935 -0.201789 -0.214422 -0.228991 -0.241913 -0.214422 -0.20935 -0.241913 -0.23562 -0.124257 -0.111039 -0.15383 -0.137433 -0.111039 -0.0901294 -0.137433 -0.112022 -0.15383 -0.137433 -0.182093 -0.162839 -0.137433 -0.112022 -0.162839 -0.132888 -0.0901294 -0.0662571 -0.112022 -0.0826604 -0.0662571 -0.0424542 -0.0826604 -0.0532842 -0.112022 -0.0826604 -0.132888 -0.0989268 -0.0826604 -0.0532842 -0.0989268 -0.0643151 -0.182093 -0.162839 -0.20935 -0.18722 -0.162839 -0.132888 -0.18722 -0.153462 -0.20935 -0.18722 -0.23562 -0.210717 -0.18722 -0.153462 -0.210717 -0.173553 -0.132888 -0.0989268 -0.153462 -0.114781 -0.0989268 -0.0643151 -0.114781 -0.0755368 -0.153462 -0.114781 -0.173553 -0.130814 -0.114781 -0.0755368 -0.130814 -0.0870613 0 0 -0.010381 -0.00442427 0 0 -0.00442427 0.000939349 -0.010381 -0.00442427 -0.0209528 -0.00923009 -0.00442427 0.000939349 -0.00923009 0.00158171 0 0 0.000939349 0.00527018 0 0 0.00527018 0.00742594 0.000939349 0.00527018 0.00158171 0.0101277 0.00527018 0.00742594 0.0101277 0.01497 -0.0209528 -0.00923009 -0.0315556 -0.0141389 -0.00923009 0.00158171 -0.0141389 0.00207173 -0.0315556 -0.0141389 -0.0424542 -0.0193404 -0.0141389 0.00207173 -0.0193404 0.00194146 0.00158171 0.0101277 0.00207173 0.0147799 0.0101277 0.01497 0.0147799 0.0220001 0.00207173 0.0147799 0.00194146 0.0193062 0.0147799 0.0220001 0.0193062 0.0290059 0 0 0.00742594 0.00785642 0 0 0.00785642 0.00706289 0.00742594 0.00785642 0.01497 0.0155246 0.00785642 0.00706289 0.0155246 0.0144895 0 0 0.00706289 0.00718354 0 0 0.00718354 0.0079546 0.00706289 0.00718354 0.0144895 0.0140029 0.00718354 0.0079546 0.0140029 0.0158821 0.01497 0.0155246 0.0220001 0.0232533 0.0155246 0.0144895 0.0232533 0.0216077 0.0220001 0.0232533 0.0290059 0.0312405 0.0232533 0.0216077 0.0312405 0.0290926 0.0144895 0.0140029 0.0216077 0.0213033 0.0140029 0.0158821 0.0213033 0.0235208 0.0216077 0.0213033 0.0290926 0.028487 0.0213033 0.0235208 0.028487 0.0309348 -0.0424542 -0.0193404 -0.0532842 -0.024744 -0.0193404 0.00194146 -0.024744 0.00172217 -0.0532842 -0.024744 -0.0643151 -0.030798 -0.024744 0.00172217 -0.030798 0.000827734 0.00194146 0.0193062 0.00172217 0.0230883 0.0193062 0.0290059 0.0230883 0.0358771 0.00172217 0.0230883 0.000827734 0.0264159 0.0230883 0.0358771 0.0264159 0.0419382 -0.0643151 -0.030798 -0.0755368 -0.0369611 -0.030798 0.000827734 -0.0369611 -0.00102797 -0.0755368 -0.0369611 -0.0870613 -0.0437806 -0.0369611 -0.00102797 -0.0437806 -0.00308164 0.000827734 0.0264159 -0.00102797 0.0287117 0.0264159 0.0419382 0.0287117 0.0470146 -0.00102797 0.0287117 -0.00308164 0.0304079 0.0287117 0.0470146 0.0304079 0.0516907 0.0290059 0.0312405 0.0358771 0.0389386 0.0312405 0.0290926 0.0389386 0.0369909 0.0358771 0.0389386 0.0419382 0.0462758 0.0389386 0.0369909 0.0462758 0.0440579 0.0290926 0.028487 0.0369909 0.03543 0.028487 0.0309348 0.03543 0.0378807 0.0369909 0.03543 0.0440579 0.0423096 0.03543 0.0378807 0.0423096 0.0439195 0.0419382 0.0462758 0.0470146 0.0531284 0.0462758 0.0440579 0.0531284 0.0511122 0.0470146 0.0531284 0.0516907 0.0591995 0.0531284 0.0511122 0.0591995 0.0578504 0.0440579 0.0423096 0.0511122 0.0484995 0.0423096 0.0439195 0.0484995 0.0492925 0.0511122 0.0484995 0.0578504 0.0547108 0.0484995 0.0492925 0.0547108 0.0545808 -0.165581 -0.201189 -0.185796 -0.225638 -0.201189 -0.228991 -0.225638 -0.255406 -0.185796 -0.225638 -0.205539 -0.249439 -0.225638 -0.255406 -0.249439 -0.280925 -0.228991 -0.241913 -0.255406 -0.268509 -0.241913 -0.23562 -0.268509 -0.260629 -0.255406 -0.268509 -0.280925 -0.293758 -0.268509 -0.260629 -0.293758 -0.284363 -0.205539 -0.249439 -0.224581 -0.272437 -0.249439 -0.280925 -0.272437 -0.305397 -0.224581 -0.272437 -0.242487 -0.294253 -0.272437 -0.305397 -0.294253 -0.328509 -0.280925 -0.293758 -0.305397 -0.317681 -0.293758 -0.284363 -0.317681 -0.306701 -0.305397 -0.317681 -0.328509 -0.340192 -0.317681 -0.306701 -0.340192 -0.327821 -0.23562 -0.210717 -0.260629 -0.23342 -0.210717 -0.173553 -0.23342 -0.193016 -0.260629 -0.23342 -0.284363 -0.254895 -0.23342 -0.193016 -0.254895 -0.21186 -0.173553 -0.130814 -0.193016 -0.146684 -0.130814 -0.0870613 -0.146684 -0.098579 -0.193016 -0.146684 -0.21186 -0.162137 -0.146684 -0.098579 -0.162137 -0.110099 -0.284363 -0.254895 -0.306701 -0.275303 -0.254895 -0.21186 -0.275303 -0.230017 -0.306701 -0.275303 -0.327821 -0.294813 -0.275303 -0.230017 -0.294813 -0.247689 -0.21186 -0.162137 -0.230017 -0.177448 -0.162137 -0.110099 -0.177448 -0.121661 -0.230017 -0.177448 -0.247689 -0.192364 -0.177448 -0.121661 -0.192364 -0.133007 -0.242487 -0.294253 -0.259442 -0.31497 -0.294253 -0.328509 -0.31497 -0.350308 -0.259442 -0.31497 -0.275074 -0.334352 -0.31497 -0.350308 -0.334352 -0.370605 -0.328509 -0.340192 -0.350308 -0.361184 -0.340192 -0.327821 -0.361184 -0.347389 -0.350308 -0.361184 -0.370605 -0.380764 -0.361184 -0.347389 -0.380764 -0.365703 -0.275074 -0.334352 -0.28902 -0.351923 -0.334352 -0.370605 -0.351923 -0.389266 -0.28902 -0.351923 -0.301307 -0.36779 -0.351923 -0.389266 -0.36779 -0.406126 -0.370605 -0.380764 -0.389266 -0.39881 -0.380764 -0.365703 -0.39881 -0.382897 -0.389266 -0.39881 -0.406126 -0.415244 -0.39881 -0.382897 -0.415244 -0.398648 -0.327821 -0.294813 -0.347389 -0.313033 -0.294813 -0.247689 -0.313033 -0.264383 -0.347389 -0.313033 -0.365703 -0.33033 -0.313033 -0.264383 -0.33033 -0.280391 -0.247689 -0.192364 -0.264383 -0.20681 -0.192364 -0.133007 -0.20681 -0.144019 -0.264383 -0.20681 -0.280391 -0.22056 -0.20681 -0.144019 -0.22056 -0.154439 -0.365703 -0.33033 -0.382897 -0.346743 -0.33033 -0.280391 -0.346743 -0.295894 -0.382897 -0.346743 -0.398648 -0.362222 -0.346743 -0.295894 -0.362222 -0.310729 -0.280391 -0.22056 -0.295894 -0.234045 -0.22056 -0.154439 -0.234045 -0.164846 -0.295894 -0.234045 -0.310729 -0.247241 -0.234045 -0.164846 -0.247241 -0.175072 -0.0870613 -0.0437806 -0.098579 -0.0508461 -0.0437806 -0.00308164 -0.0508461 -0.00584129 -0.098579 -0.0508461 -0.110099 -0.0580043 -0.0508461 -0.00584129 -0.0580043 -0.00906461 -0.00308164 0.0304079 -0.00584129 0.031357 0.0304079 0.0516907 0.031357 0.0554355 -0.00584129 0.031357 -0.00906461 0.0313726 0.031357 0.0554355 0.0313726 0.0580063 -0.110099 -0.0580043 -0.121661 -0.065457 -0.0580043 -0.00906461 -0.065457 -0.0126956 -0.121661 -0.065457 -0.133007 -0.0728158 -0.065457 -0.0126956 -0.0728158 -0.0168019 -0.00906461 0.0313726 -0.0126956 0.0306637 0.0313726 0.0580063 0.0306637 0.0593797 -0.0126956 0.0306637 -0.0168019 0.0290024 0.0306637 0.0593797 0.0290024 0.0596653 0.0516907 0.0591995 0.0554355 0.0649929 0.0591995 0.0578504 0.0649929 0.0643116 0.0554355 0.0649929 0.0580063 0.0694364 0.0649929 0.0643116 0.0694364 0.0699485 0.0578504 0.0547108 0.0643116 0.060838 0.0547108 0.0545808 0.060838 0.0594677 0.0643116 0.060838 0.0699485 0.0663235 0.060838 0.0594677 0.0663235 0.0640698 0.0580063 0.0694364 0.0593797 0.0725615 0.0694364 0.0699485 0.0725615 0.0742948 0.0593797 0.0725615 0.0596653 0.0747687 0.0725615 0.0742948 0.0747687 0.0782297 0.0699485 0.0663235 0.0742948 0.071322 0.0663235 0.0640698 0.071322 0.0685026 0.0742948 0.071322 0.0782297 0.0758038 0.071322 0.0685026 0.0758038 0.0728064 -0.133007 -0.0728158 -0.144019 -0.0800953 -0.0728158 -0.0168019 -0.0800953 -0.0207591 -0.144019 -0.0800953 -0.154439 -0.0868807 -0.0800953 -0.0207591 -0.0868807 -0.0250035 -0.0168019 0.0290024 -0.0207591 0.0270123 0.0290024 0.0596653 0.0270123 0.0590378 -0.0207591 0.0270123 -0.0250035 0.024254 0.0270123 0.0590378 0.024254 0.0570969 -0.154439 -0.0868807 -0.164846 -0.0939465 -0.0868807 -0.0250035 -0.0939465 -0.0296208 -0.164846 -0.0939465 -0.175072 -0.101131 -0.0939465 -0.0296208 -0.101131 -0.0347965 -0.0250035 0.024254 -0.0296208 0.020614 0.024254 0.0570969 0.020614 0.0540131 -0.0296208 0.020614 -0.0347965 0.016011 0.020614 0.0540131 0.016011 0.049489 0.0596653 0.0747687 0.0590378 0.0755007 0.0747687 0.0782297 0.0755007 0.0807637 0.0590378 0.0755007 0.0570969 0.0750611 0.0755007 0.0807637 0.0750611 0.0821723 0.0782297 0.0758038 0.0807637 0.0799717 0.0758038 0.0728064 0.0799717 0.0772772 0.0807637 0.0799717 0.0821723 0.0830565 0.0799717 0.0772772 0.0830565 0.0813383 0.0570969 0.0750611 0.0540131 0.0729129 0.0750611 0.0821723 0.0729129 0.0822323 0.0540131 0.0729129 0.049489 0.0693912 0.0729129 0.0822323 0.0693912 0.0807896 0.0821723 0.0830565 0.0822323 0.0853836 0.0830565 0.0813383 0.0853836 0.0852064 0.0822323 0.0853836 0.0807896 0.0866934 0.0853836 0.0852064 0.0866934 0.0886322 0 0.15801 0 0.163399 0.15801 0.306719 0.163399 0.317513 0 0.163399 0 0.16803 0.163399 0.317513 0.16803 0.326904 0.306719 0.437481 0.317513 0.453539 0.437481 0.542594 0.453539 0.56341 0.317513 0.453539 0.326904 0.467742 0.453539 0.56341 0.467742 0.582131 0 0.16803 0 0.171928 0.16803 0.326904 0.171928 0.334943 0 0.171928 0 0.175061 0.171928 0.334943 0.175061 0.34157 0.326904 0.467742 0.334943 0.480174 0.467742 0.582131 0.480174 0.59888 0.334943 0.480174 0.34157 0.490752 0.480174