<?xml version="1.0" ?> 
<!-- 
# vtk DataFile Version 3.0
#This file was generated by the deal.II library on 23:53:56 at 2021/5/3
-->
<VTKFile type="UnstructuredGrid" version="0.1" byte_order="LittleEndian">
<UnstructuredGrid>
<FieldData>
<DataArray type="Float32" Name="CYCLE" NumberOfTuples="1" format="ascii">231</DataArray>
<DataArray type="Float32" Name="TIME" NumberOfTuples="1" format="ascii">0.462</DataArray>
</FieldData>
<Piece NumberOfPoints="7296" NumberOfCells="1824" >
  <Points>
    <DataArray type="Float32" NumberOfComponents="3" format="ascii">
-1 -1 0
-0.75 -1 0
-1 -0.75 0
-0.75 -0.75 0
-0.75 -1 0
-0.5 -1 0
-0.75 -0.75 0
-0.5 -0.75 0
-1 -0.75 0
-0.75 -0.75 0
-1 -0.5 0
-0.75 -0.5 0
-0.75 -0.75 0
-0.5 -0.75 0
-0.75 -0.5 0
-0.5 -0.5 0
-0.5 -1 0
-0.25 -1 0
-0.5 -0.75 0
-0.25 -0.75 0
-0.25 -0.75 0
-0.125 -0.75 0
-0.25 -0.625 0
-0.125 -0.625 0
-0.125 -0.75 0
0 -0.75 0
-0.125 -0.625 0
0 -0.625 0
-0.75 -0.25 0
-0.625 -0.25 0
-0.75 -0.125 0
-0.625 -0.125 0
-0.625 -0.25 0
-0.5 -0.25 0
-0.625 -0.125 0
-0.5 -0.125 0
-0.625 -0.125 0
-0.5 -0.125 0
-0.625 0 0
-0.5 0 0
0 -1 0
0.125 -1 0
0 -0.875 0
0.125 -0.875 0
0.125 -1 0
0.25 -1 0
0.125 -0.875 0
0.25 -0.875 0
0 -0.875 0
0.125 -0.875 0
0 -0.75 0
0.125 -0.75 0
0.125 -0.875 0
0.25 -0.875 0
0.125 -0.75 0
0.25 -0.75 0
-0.25 -1 0
-0.125 -1 0
-0.25 -0.875 0
-0.125 -0.875 0
-0.125 -1 0
0 -1 0
-0.125 -0.875 0
0 -0.875 0
-0.25 -0.875 0
-0.125 -0.875 0
-0.25 -0.75 0
-0.125 -0.75 0
-0.5 -0.25 0
-0.375 -0.25 0
-0.5 -0.125 0
-0.375 -0.125 0
-0.375 -0.25 0
-0.25 -0.25 0
-0.375 -0.125 0
-0.25 -0.125 0
-0.5 -0.125 0
-0.375 -0.125 0
-0.5 0 0
-0.375 0 0
-0.375 -0.125 0
-0.25 -0.125 0
-0.375 0 0
-0.25 0 0
-1 -0.25 0
-0.875 -0.25 0
-1 -0.125 0
-0.875 -0.125 0
-0.875 -0.25 0
-0.75 -0.25 0
-0.875 -0.125 0
-0.75 -0.125 0
-1 -0.125 0
-0.875 -0.125 0
-1 0 0
-0.875 0 0
-0.875 -0.125 0
-0.75 -0.125 0
-0.875 0 0
-0.75 0 0
-0.5 -0.5 0
-0.375 -0.5 0
-0.5 -0.375 0
-0.375 -0.375 0
-0.375 -0.5 0
-0.25 -0.5 0
-0.375 -0.375 0
-0.25 -0.375 0
-0.5 -0.375 0
-0.375 -0.375 0
-0.5 -0.25 0
-0.375 -0.25 0
-0.375 -0.375 0
-0.25 -0.375 0
-0.375 -0.25 0
-0.25 -0.25 0
0.25 -1 0
0.375 -1 0
0.25 -0.875 0
0.375 -0.875 0
0.25 -0.875 0
0.375 -0.875 0
0.25 -0.75 0
0.375 -0.75 0
-0.25 -0.125 0
-0.125 -0.125 0
-0.25 0 0
-0.125 0 0
-0.75 0 0
-0.625 0 0
-0.75 0.125 0
-0.625 0.125 0
-0.75 0.125 0
-0.625 0.125 0
-0.75 0.25 0
-0.625 0.25 0
-1 0 0
-0.875 0 0
-1 0.125 0
-0.875 0.125 0
-0.875 0 0
-0.75 0 0
-0.875 0.125 0
-0.75 0.125 0
-1 0.125 0
-0.875 0.125 0
-1 0.25 0
-0.875 0.25 0
-0.875 0.125 0
-0.75 0.125 0
-0.875 0.25 0
-0.75 0.25 0
-0.75 0.25 0
-0.625 0.25 0
-0.75 0.375 0
-0.625 0.375 0
-0.625 0.25 0
-0.5 0.25 0
-0.625 0.375 0
-0.5 0.375 0
-0.75 0.375 0
-0.625 0.375 0
-0.75 0.5 0
-0.625 0.5 0
-0.375 0 0
-0.25 0 0
-0.375 0.125 0
-0.25 0.125 0
-0.5 0.125 0
-0.375 0.125 0
-0.5 0.25 0
-0.375 0.25 0
-0.375 0.125 0
-0.25 0.125 0
-0.375 0.25 0
-0.25 0.25 0
-0.25 0.125 0
-0.125 0.125 0
-0.25 0.25 0
-0.125 0.25 0
-0.125 0.125 0
0 0.125 0
-0.125 0.25 0
0 0.25 0
-1 0.25 0
-0.875 0.25 0
-1 0.375 0
-0.875 0.375 0
-1 0.375 0
-0.875 0.375 0
-1 0.5 0
-0.875 0.5 0
-1 0.5 0
-0.875 0.5 0
-1 0.625 0
-0.875 0.625 0
-1 0.625 0
-0.875 0.625 0
-1 0.75 0
-0.875 0.75 0
0.875 -1 0
1 -1 0
0.875 -0.875 0
1 -0.875 0
-1 0.75 0
-0.875 0.75 0
-1 0.875 0
-0.875 0.875 0
-0.875 0.75 0
-0.75 0.75 0
-0.875 0.875 0
-0.75 0.875 0
-1 0.875 0
-0.875 0.875 0
-1 1 0
-0.875 1 0
-0.875 0.875 0
-0.75 0.875 0
-0.875 1 0
-0.75 1 0
-0.5 -0.75 0
-0.375 -0.75 0
-0.5 -0.625 0
-0.375 -0.625 0
-0.375 -0.75 0
-0.25 -0.75 0
-0.375 -0.625 0
-0.25 -0.625 0
-0.5 -0.625 0
-0.375 -0.625 0
-0.5 -0.5 0
-0.375 -0.5 0
-0.375 -0.625 0
-0.25 -0.625 0
-0.375 -0.5 0
-0.25 -0.5 0
-1 -0.5 0
-0.875 -0.5 0
-1 -0.375 0
-0.875 -0.375 0
-0.875 -0.5 0
-0.75 -0.5 0
-0.875 -0.375 0
-0.75 -0.375 0
-1 -0.375 0
-0.875 -0.375 0
-1 -0.25 0
-0.875 -0.25 0
-0.875 -0.375 0
-0.75 -0.375 0
-0.875 -0.25 0
-0.75 -0.25 0
-0.5 0.25 0
-0.375 0.25 0
-0.5 0.375 0
-0.375 0.375 0
-0.375 0.25 0
-0.25 0.25 0
-0.375 0.375 0
-0.25 0.375 0
-0.25 0.25 0
-0.125 0.25 0
-0.25 0.375 0
-0.125 0.375 0
-0.125 0.25 0
0 0.25 0
-0.125 0.375 0
0 0.375 0
-0.125 0.375 0
0 0.375 0
-0.125 0.5 0
0 0.5 0
-0.75 -0.5 0
-0.625 -0.5 0
-0.75 -0.375 0
-0.625 -0.375 0
-0.625 -0.5 0
-0.5 -0.5 0
-0.625 -0.375 0
-0.5 -0.375 0
-0.75 -0.375 0
-0.625 -0.375 0
-0.75 -0.25 0
-0.625 -0.25 0
-0.625 -0.375 0
-0.5 -0.375 0
-0.625 -0.25 0
-0.5 -0.25 0
-0.75 0.5 0
-0.625 0.5 0
-0.75 0.625 0
-0.625 0.625 0
-0.75 0.625 0
-0.625 0.625 0
-0.75 0.75 0
-0.625 0.75 0
-0.25 0.75 0
-0.125 0.75 0
-0.25 0.875 0
-0.125 0.875 0
-0.125 0.75 0
0 0.75 0
-0.125 0.875 0
0 0.875 0
-0.25 0.875 0
-0.125 0.875 0
-0.25 1 0
-0.125 1 0
-0.125 0.875 0
0 0.875 0
-0.125 1 0
0 1 0
-0.75 0.75 0
-0.625 0.75 0
-0.75 0.875 0
-0.625 0.875 0
-0.75 0.875 0
-0.625 0.875 0
-0.75 1 0
-0.625 1 0
-0.625 0.875 0
-0.5 0.875 0
-0.625 1 0
-0.5 1 0
-0.125 0.5 0
0 0.5 0
-0.125 0.625 0
0 0.625 0
-0.125 0.625 0
0 0.625 0
-0.125 0.75 0
0 0.75 0
-0.375 0.75 0
-0.25 0.75 0
-0.375 0.875 0
-0.25 0.875 0
-0.5 0.875 0
-0.375 0.875 0
-0.5 1 0
-0.375 1 0
-0.375 0.875 0
-0.25 0.875 0
-0.375 1 0
-0.25 1 0
0.125 -0.25 0
0.1875 -0.25 0
0.125 -0.1875 0
0.1875 -0.1875 0
0.125 -0.1875 0
0.1875 -0.1875 0
0.125 -0.125 0
0.1875 -0.125 0
0.5 -0.8125 0
0.5625 -0.8125 0
0.5 -0.75 0
0.5625 -0.75 0
0.5625 -0.8125 0
0.625 -0.8125 0
0.5625 -0.75 0
0.625 -0.75 0
0.125 -0.75 0
0.1875 -0.75 0
0.125 -0.6875 0
0.1875 -0.6875 0
0.1875 -0.75 0
0.25 -0.75 0
0.1875 -0.6875 0
0.25 -0.6875 0
0.125 -0.6875 0
0.1875 -0.6875 0
0.125 -0.625 0
0.1875 -0.625 0
0.1875 -0.6875 0
0.25 -0.6875 0
0.1875 -0.625 0
0.25 -0.625 0
0.625 -0.875 0
0.6875 -0.875 0
0.625 -0.8125 0
0.6875 -0.8125 0
0.6875 -0.875 0
0.75 -0.875 0
0.6875 -0.8125 0
0.75 -0.8125 0
0.625 -0.8125 0
0.6875 -0.8125 0
0.625 -0.75 0
0.6875 -0.75 0
0.6875 -0.8125 0
0.75 -0.8125 0
0.6875 -0.75 0
0.75 -0.75 0
0.75 -0.875 0
0.8125 -0.875 0
0.75 -0.8125 0
0.8125 -0.8125 0
0.75 -0.8125 0
0.8125 -0.8125 0
0.75 -0.75 0
0.8125 -0.75 0
0.8125 -0.8125 0
0.875 -0.8125 0
0.8125 -0.75 0
0.875 -0.75 0
0.0625 -0.625 0
0.125 -0.625 0
0.0625 -0.5625 0
0.125 -0.5625 0
0 -0.5625 0
0.0625 -0.5625 0
0 -0.5 0
0.0625 -0.5 0
0.0625 -0.5625 0
0.125 -0.5625 0
0.0625 -0.5 0
0.125 -0.5 0
0.125 -0.625 0
0.1875 -0.625 0
0.125 -0.5625 0
0.1875 -0.5625 0
0 -0.5 0
0.0625 -0.5 0
0 -0.4375 0
0.0625 -0.4375 0
0.0625 -0.5 0
0.125 -0.5 0
0.0625 -0.4375 0
0.125 -0.4375 0
0 -0.4375 0
0.0625 -0.4375 0
0 -0.375 0
0.0625 -0.375 0
0.1875 -0.5 0
0.25 -0.5 0
0.1875 -0.4375 0
0.25 -0.4375 0
0.125 -0.4375 0
0.1875 -0.4375 0
0.125 -0.375 0
0.1875 -0.375 0
0 -0.375 0
0.0625 -0.375 0
0 -0.3125 0
0.0625 -0.3125 0
0.0625 -0.375 0
0.125 -0.375 0
0.0625 -0.3125 0
0.125 -0.3125 0
0 -0.3125 0
0.0625 -0.3125 0
0 -0.25 0
0.0625 -0.25 0
0.0625 -0.3125 0
0.125 -0.3125 0
0.0625 -0.25 0
0.125 -0.25 0
0.125 -0.0625 0
0.1875 -0.0625 0
0.125 0 0
0.1875 0 0
0.1875 -0.0625 0
0.25 -0.0625 0
0.1875 0 0
0.25 0 0
0.25 -0.75 0
0.3125 -0.75 0
0.25 -0.6875 0
0.3125 -0.6875 0
0.3125 -0.75 0
0.375 -0.75 0
0.3125 -0.6875 0
0.375 -0.6875 0
0.25 -0.6875 0
0.3125 -0.6875 0
0.25 -0.625 0
0.3125 -0.625 0
0.3125 -0.6875 0
0.375 -0.6875 0
0.3125 -0.625 0
0.375 -0.625 0
-0.0625 -0.375 0
0 -0.375 0
-0.0625 -0.3125 0
0 -0.3125 0
-0.125 -0.3125 0
-0.0625 -0.3125 0
-0.125 -0.25 0
-0.0625 -0.25 0
-0.0625 -0.3125 0
0 -0.3125 0
-0.0625 -0.25 0
0 -0.25 0
0 -0.75 0
0.0625 -0.75 0
0 -0.6875 0
0.0625 -0.6875 0
0.0625 -0.75 0
0.125 -0.75 0
0.0625 -0.6875 0
0.125 -0.6875 0
0 -0.6875 0
0.0625 -0.6875 0
0 -0.625 0
0.0625 -0.625 0
0.375 -0.875 0
0.4375 -0.875 0
0.375 -0.8125 0
0.4375 -0.8125 0
0.4375 -0.875 0
0.5 -0.875 0
0.4375 -0.8125 0
0.5 -0.8125 0
0.375 -0.8125 0
0.4375 -0.8125 0
0.375 -0.75 0
0.4375 -0.75 0
0.5 -1 0
0.5625 -1 0
0.5 -0.9375 0
0.5625 -0.9375 0
0.5625 -1 0
0.625 -1 0
0.5625 -0.9375 0
0.625 -0.9375 0
0.5625 -0.9375 0
0.625 -0.9375 0
0.5625 -0.875 0
0.625 -0.875 0
0 -0.125 0
0.0625 -0.125 0
0 -0.0625 0
0.0625 -0.0625 0
0.0625 -0.125 0
0.125 -0.125 0
0.0625 -0.0625 0
0.125 -0.0625 0
0.0625 -0.0625 0
0.125 -0.0625 0
0.0625 0 0
0.125 0 0
-0.125 -0.25 0
-0.0625 -0.25 0
-0.125 -0.1875 0
-0.0625 -0.1875 0
-0.0625 -0.25 0
0 -0.25 0
-0.0625 -0.1875 0
0 -0.1875 0
-0.125 -0.1875 0
-0.0625 -0.1875 0
-0.125 -0.125 0
-0.0625 -0.125 0
-0.0625 -0.1875 0
0 -0.1875 0
-0.0625 -0.125 0
0 -0.125 0
-0.125 -0.125 0
-0.0625 -0.125 0
-0.125 -0.0625 0
-0.0625 -0.0625 0
-0.0625 -0.125 0
0 -0.125 0
-0.0625 -0.0625 0
0 -0.0625 0
-0.125 -0.0625 0
-0.0625 -0.0625 0
-0.125 0 0
-0.0625 0 0
-0.25 -0.625 0
-0.1875 -0.625 0
-0.25 -0.5625 0
-0.1875 -0.5625 0
-0.1875 -0.625 0
-0.125 -0.625 0
-0.1875 -0.5625 0
-0.125 -0.5625 0
-0.25 -0.5625 0
-0.1875 -0.5625 0
-0.25 -0.5 0
-0.1875 -0.5 0
-0.1875 -0.5625 0
-0.125 -0.5625 0
-0.1875 -0.5 0
-0.125 -0.5 0
-0.125 -0.625 0
-0.0625 -0.625 0
-0.125 -0.5625 0
-0.0625 -0.5625 0
-0.0625 -0.625 0
0 -0.625 0
-0.0625 -0.5625 0
0 -0.5625 0
-0.125 -0.5625 0
-0.0625 -0.5625 0
-0.125 -0.5 0
-0.0625 -0.5 0
-0.0625 -0.5625 0
0 -0.5625 0
-0.0625 -0.5 0
0 -0.5 0
-0.75 -0.125 0
-0.6875 -0.125 0
-0.75 -0.0625 0
-0.6875 -0.0625 0
-0.6875 -0.125 0
-0.625 -0.125 0
-0.6875 -0.0625 0
-0.625 -0.0625 0
-0.75 -0.0625 0
-0.6875 -0.0625 0
-0.75 0 0
-0.6875 0 0
-0.6875 -0.0625 0
-0.625 -0.0625 0
-0.6875 0 0
-0.625 0 0
0.75 -1 0
0.8125 -1 0
0.75 -0.9375 0
0.8125 -0.9375 0
0.8125 -1 0
0.875 -1 0
0.8125 -0.9375 0
0.875 -0.9375 0
0.75 -0.9375 0
0.8125 -0.9375 0
0.75 -0.875 0
0.8125 -0.875 0
0.8125 -0.9375 0
0.875 -0.9375 0
0.8125 -0.875 0
0.875 -0.875 0
0.875 -0.875 0
0.9375 -0.875 0
0.875 -0.8125 0
0.9375 -0.8125 0
0.9375 -0.875 0
1 -0.875 0
0.9375 -0.8125 0
1 -0.8125 0
0.9375 -0.8125 0
1 -0.8125 0
0.9375 -0.75 0
1 -0.75 0
-0.25 -0.5 0
-0.1875 -0.5 0
-0.25 -0.4375 0
-0.1875 -0.4375 0
-0.1875 -0.5 0
-0.125 -0.5 0
-0.1875 -0.4375 0
-0.125 -0.4375 0
-0.25 -0.4375 0
-0.1875 -0.4375 0
-0.25 -0.375 0
-0.1875 -0.375 0
-0.1875 -0.4375 0
-0.125 -0.4375 0
-0.1875 -0.375 0
-0.125 -0.375 0
-0.25 -0.375 0
-0.1875 -0.375 0
-0.25 -0.3125 0
-0.1875 -0.3125 0
-0.1875 -0.375 0
-0.125 -0.375 0
-0.1875 -0.3125 0
[...]
  <PointData Scalars="scalars">
    <DataArray type="Float32" Name="U" format="ascii">
0 0 0 9.77898e-05 0 0 9.77898e-05 0.000177653 0 9.77898e-05 0 0.00021876 9.77898e-05 0.000177653 0.00021876 0.000375101 0 0 0.000177653 0.000267495 0.000267495 0.000363918 0.00039759 0.000530694 0.000363918 0.00055215 0.000530694 0.000836814 0.000383327 0.00051826 0.000487488 0.000656587 0.00051826 0.000610975 0.000656587 0.000753231 0.000656587 0.000753231 0.000808029 0.000907775 0 0 0.000269749 0.000432857 0 0 0.000432857 0.000694663 0.000269749 0.000432857 0.00055215 0.000905561 0.000432857 0.000694663 0.000905561 0.00149871 0 0 0.000133748 0.000181318 0 0 0.000181318 0.000269749 0.000133748 0.000181318 0.000267495 0.000363918 0.000610975 0.000649124 0.000753231 0.000762979 0.000649124 0.000673195 0.000762979 0.000708255 0.000753231 0.000762979 0.000907775 0.00088331 0.000762979 0.000708255 0.00088331 0.000747554 0 0.000201677 0 0.000258453 0.000201677 0.000383327 0.000258453 0.000487488 0 0.000258453 0 0.000321204 0.000258453 0.000487488 0.000321204 0.000602477 0.000375101 0.000435704 0.000487133 0.000542689 0.000435704 0.000518307 0.000542689 0.000610355 0.000487133 0.000542689 0.000610975 0.000649124 0.000542689 0.000610355 0.000649124 0.000673195 0 0 0.000694663 0.00102289 0.000694663 0.00102289 0.00149871 0.00227029 0.000708255 0.000642417 0.000747554 0.000511536 0.000602477 0.000808029 0.000715285 0.0009447 0.000715285 0.0009447 0.000801338 0.00106694 0 0.000321204 0 0.000380184 0.000321204 0.000602477 0.000380184 0.000715285 0 0.000380184 0 0.000426881 0.000380184 0.000715285 0.000426881 0.000801338 0.000801338 0.00106694 0.000842462 0.00112457 0.00106694 0.00117684 0.00112457 0.00123495 0.000842462 0.00112457 0.000822188 0.0010877 0.00088331 0.000747554 0.00100555 0.000801528 0.00104944 0.00100555 0.00117684 0.00110879 0.00100555 0.000801528 0.00110879 0.000864782 0.000801528 0.000462991 0.000864782 0.000473938 0.000462991 0 0.000473938 0 0 0.000426881 0 0.000447467 0 0.000447467 0 0.000436313 0 0.000436313 0 0.000381849 0 0.000381849 0 0.000286032 0 0 0.000781106 0 0 0.000286032 0 0.000153831 0.000286032 0.000538045 0.000153831 0.000288538 0 0.000153831 0 0 0.000153831 0.000288538 0 0 0.000177653 0.000222574 0.000276377 0.000327833 0.000222574 0.000267495 0.000327833 0.00039759 0.000276377 0.000327833 0.000375101 0.000435704 0.000327833 0.00039759 0.000435704 0.000518307 0 0.00010938 0 0.000154286 0.00010938 0.00021876 0.000154286 0.000295399 0 0.000154286 0 0.000201677 0.000154286 0.000295399 0.000201677 0.000383327 0.00117684 0.00110879 0.00123495 0.00115907 0.00110879 0.000864782 0.00115907 0.000898758 0.000864782 0.000473938 0.000898758 0.000491614 0.000473938 0 0.000491614 0 0.000491614 0 0.000472053 0 0.00021876 0.00029693 0.000295399 0.000402915 0.00029693 0.000375101 0.000402915 0.000487133 0.000295399 0.000402915 0.000383327 0.00051826 0.000402915 0.000487133 0.00051826 0.000610975 0.000822188 0.0010877 0.000719426 0.00095368 0.000719426 0.00095368 0.000538045 0.000710522 0.000567899 0.000310144 0.000306047 0.000166649 0.000310144 0 0.000166649 0 0.000306047 0.000166649 0 0 0.000166649 0 0 0 0.000538045 0.000710522 0.000288538 0.000382395 0.000288538 0.000382395 0 0 0.000382395 0.000417343 0 0 0.000472053 0 0.000412776 0 0.000412776 0 0.000310144 0 0.000727816 0.000567899 0.000394365 0.000306047 0.000417343 0.000394365 0 0 0.000394365 0.000306047 0 0 0.00183868 0.00246397 0.00153495 0.00205239 0.00153495 0.00205239 0.00109886 0.00146892 0.00213319 0.00231316 0.00302864 0.00328519 0.00231316 0.00237394 0.00328519 0.00340962 0.000905561 0.00120214 0.001182 0.00152903 0.00120214 0.00149871 0.00152903 0.00196407 0.001182 0.00152903 0.00143291 0.00187597 0.00152903 0.00196407 0.00187597 0.0024239 0.0014914 0.00145859 0.00237394 0.00231809 0.00145859 0.00131961 0.00231809 0.00210707 0.00237394 0.00231809 0.00340962 0.00332779 0.00231809 0.00210707 0.00332779 0.00303435 0.00131961 0.00109633 0.00210707 0.00174409 0.00210707 0.00174409 0.00303435 0.00251856 0.00174409 0.0012464 0.00251856 0.00179947 0.00109211 0.00143291 0.00126837 0.00167701 0.000973184 0.00126837 0.00107421 0.00141379 0.00126837 0.00167701 0.00141379 0.00189175 0.00143291 0.00187597 0.00167701 0.00221534 0.00107421 0.00141379 0.00115542 0.00151623 0.00141379 0.00189175 0.00151623 0.00202614 0.00115542 0.00151623 0.00117769 0.00155461 0.00250489 0.0032738 0.00270413 0.00354465 0.00202614 0.00270413 0.00207822 0.00278069 0.00117769 0.00155461 0.00115178 0.00150626 0.00155461 0.00207822 0.00150626 0.00203084 0.00115178 0.00150626 0.00106521 0.00137607 0.00150626 0.00203084 0.00137607 0.00183868 0.000576561 0.000756073 0 0 0.000756073 0.00101357 0 0 0.00149871 0.0018845 0.00196407 0.00245883 0.0018845 0.00227029 0.00245883 0.00300682 0.00196407 0.00245883 0.0024239 0.00307065 0.00245883 0.00300682 0.00307065 0.00376908 0.000928202 0.00117769 0.000914158 0.00115178 0.000779511 0.000914158 0.000754015 0.000868259 0.000914158 0.00115178 0.000868259 0.00106521 0.00055215 0.000728855 0.000694482 0.00090342 0.000728855 0.000905561 0.00090342 0.001182 0.000694482 0.00090342 0.000836814 0.00109211 0.00102289 0.00120525 0.00164659 0.00189546 0.00120525 0.00134037 0.00189546 0.00213319 0.00164659 0.00189546 0.00227029 0.00268141 0 0 0.000651112 0.000696895 0 0 0.000696895 0.000717057 0.000696895 0.000717057 0.00145862 0.0014914 0.000703088 0.000841887 0.000426112 0.000454225 0.000841887 0.00109886 0.000454225 0.000576561 0.000454225 0.000576561 0 0 0.000754015 0.000868259 0.0007162 0.000775369 0.000868259 0.00106521 0.000775369 0.000923173 0.0007162 0.000775369 0.000642417 0.000647442 0.000775369 0.000923173 0.000647442 0.000703088 0.000642417 0.000647442 0.000576976 0.000484519 0.000647442 0.000703088 0.000484519 0.000426112 0.000576976 0.000484519 0.000511536 0.000342106 0.00039759 0.000464142 0.000457949 0.000520625 0.000464142 0.000530694 0.000520625 0.000625315 0.000457949 0.000520625 0.000518307 0.000578011 0.000520625 0.000625315 0.000578011 0.000687294 0.000530694 0.000683754 0.000625315 0.000761161 0.000683754 0.000836814 0.000761161 0.000973184 0.000625315 0.000761161 0.000687294 0.000837909 0.000761161 0.000973184 0.000837909 0.00107421 0.000487488 0.000572037 0.000544982 0.000648836 0.000572037 0.000656587 0.000648836 0.000732308 0.000544982 0.000648836 0.000602477 0.000705253 0.000648836 0.000732308 0.000705253 0.000808029 0 0 0.000632847 0.000523728 0 0 0.000523728 0.000390553 0.000632847 0.000523728 0.00131961 0.00109633 0.000523728 0.000390553 0.00109633 0.000781106 0.000781106 0.000390553 0.0012464 0.000650023 0.000390553 0 0.000650023 0 0.000650023 0 0.000932825 0 0.000518307 0.000578011 0.000564331 0.00063512 0.000578011 0.000687294 0.00063512 0.000740137 0.000564331 0.00063512 0.000610355 0.000662718 0.00063512 0.000740137 0.000662718 0.000773205 0.000610355 0.000662718 0.000641775 0.000689877 0.000662718 0.000773205 0.000689877 0.000779511 0.000641775 0.000689877 0.000673195 0.000692794 0.000689877 0.000779511 0.000692794 0.000754015 0.000458608 0.000263759 0.000462991 0.000231495 0.000263759 0 0.000231495 0 0.000181318 0.000225534 0.000272618 0.000329263 0.000225534 0.000269749 0.000329263 0.000410949 0.000272618 0.000329263 0.000363918 0.000458034 0.000329263 0.000410949 0.000458034 0.00055215 0.000673195 0.000692794 0.000690725 0.000689636 0.000692794 0.000754015 0.000689636 0.0007162 0.000690725 0.000689636 0.000708255 0.000675336 0.000689636 0.0007162 0.000675336 0.000642417 0.000808029 0.000857902 0.000876365 0.00094837 0.000857902 0.000907775 0.00094837 0.000968476 0.000876365 0.00094837 0.0009447 0.0010168 0.00094837 0.000968476 0.0010168 0.00104944 0 0 0.000511445 0.000581042 0 0 0.000581042 0.000651112 0.000511445 0.000581042 0.00102289 0.00120525 0.000581042 0.000651112 0.00120525 0.00134037 0.0009447 0.0010168 0.00100582 0.00108608 0.0010168 0.00104944 0.00108608 0.00111314 0.00100582 0.00108608 0.00106694 0.00112189 0.00108608 0.00111314 0.00112189 0.00117684 0 0 0.000717057 0.000705019 0 0 0.000705019 0.000632847 0.00112457 0.00117976 0.00110614 0.00119798 0.00117976 0.00123495 0.00119798 0.00121384 0.00110614 0.00119798 0.0010877 0.00115668 0.00119798 0.00121384 0.00115668 0.00117801 0.000907775 0.000895543 0.000968476 0.000981703 0.000895543 0.00088331 0.000981703 0.000944429 0.000968476 0.000981703 0.00104944 0.00102749 0.000981703 0.000944429 0.00102749 0.00100555 0.000747554 0.000629545 0.000774541 0.00063863 0.000629545 0.000511536 0.00063863 0.000458608 0.000774541 0.00063863 0.000801528 0.000632259 0.00063863 0.000458608 0.000632259 0.000462991 0.00242381 0.00126923 0.00311309 0.00162969 0.00126923 0 0.00162969 0 0.00162969 0 0.00198896 0 0.000426881 0.00061411 0.000437174 0.000645997 0.00061411 0.000801338 0.000645997 0.0008219 0.000437174 0.000645997 0.000447467 0.000651685 0.000645997 0.0008219 0.000651685 0.000842462 0.000447467 0.000651685 0.00044189 0.000656066 0.000651685 0.000842462 0.000656066 0.000832325 0.00044189 0.000656066 0.000436313 0.00063311 0.000656066 0.000832325 0.00063311 0.000822188 0.000436313 0.00063311 0.000409081 0.000608528 0.00063311 0.000822188 0.000608528 0.000770807 0.000409081 0.000608528 0.000381849 0.000553588 0.000608528 0.000770807 0.000553588 0.000719426 0.000381849 0.000553588 0.00033394 0.000496902 0.000553588 0.000719426 0.000496902 0.000628735 0.00033394 0.000496902 0.000286032 0.000412038 0.000496902 0.000628735 0.000412038 0.000538045 0.00166479 0.00201409 0 0 0.00307065 0.00376908 0.00366616 0.00452376 0.00288465 0.00366616 0.0032738 0.00418709 0.00366616 0.00452376 0.00418709 0.00518623 0.00123495 0.00119701 0.00121384 0.00121667 0.00119701 0.00115907 0.00121667 0.00113791 0.00121384 0.00121667 0.00117801 0.00117527 0.00121667 0.00113791 0.00117527 0.00110365 0.00376908 0.00447482 0.00452376 0.00539101 0.00447482 0.00510843 0.00539101 0.00617718 0.00227029 0.00268141 0.00300682 0.00354715 0.00268141 0.00302864 0.00354715 0.00403263 0.00300682 0.00354715 0.00376908 0.00447482 0.00354715 0.00403263 0.00447482 0.00510843 0.00115907 0.00102892 0.00113791 0.00104571 0.00102892 0.000898758 0.00104571 0.000881188 0.00113791 0.00104571 0.00110365 0.00100949 0.00104571 0.000881188 0.00100949 0.000854376 0.000898758 0.000695186 0.000881188 0.000706255 0.000695186 0.000491614 0.000706255 0.000481834 0.000881188 0.000706255 0.000854376 0.000680926 0.000706255 0.000481834 0.000680926 0.000472053 0.0010877 0.00115668 0.00102069 0.00110842 0.00115668 0.00117801 0.00110842 0.0011255 0.00102069 0.00110842 0.00095368 0.00101085 0.00110842 0.0011255 0.00101085 0.00102913 0.00095368 0.00101085 0.000832101 0.000904628 0.00101085 0.00102913 0.000904628 0.000918271 0.000832101 0.000904628 0.000710522 0.000752973 0.000904628 0.000918271 0.000752973 0.000766752 0.0032738 0.00418709 0.00354465 0.00457102 0.000710522 0.000752973 0.000546459 0.000594633 0.000752973 0.000766752 0.000594633 0.000602448 0.000546459 0.000594633 0.000382395 0.000399869 0.000594633 0.000602448 0.000399869 0.000417343 0.00117801 0.00117527 0.0011255 0.00112333 0.00117527 0.00110365 0.00112333 0.00105417 0.0011255 0.00112333 0.00102913 0.00102681 0.00112333 0.00105417 0.00102681 0.000963584 0.00302864 0.00328519 0.00403263 0.00438071 0.00403263 0.00438071 0.00510843 0.00557873 0.00110365 0.00100949 0.00105417 0.000964422 0.00100949 0.000854376 0.000964422 0.000815601 0.00105417 0.000964422 0.000963584 0.000881369 0.000964422 0.000815601 0.000881369 0.000745604 0.00102913 0.00102681 0.000918271 0.00091698 0.00102681 0.000963584 0.00091698 0.000859208 0.000918271 0.00091698 0.000766752 0.000764385 0.00091698 0.000859208 0.000764385 0.000727816 0.000963584 0.000881369 0.000859208 0.000788022 0.000881369 0.000745604 0.000788022 0.000664247 0.000859208 0.000788022 0.000727816 0.000647857 0.000788022 0.000664247 0.000647857 0.000567899 0.000854376 0.000680926 0.000815601 0.000651235 0.000680926 0.000472053 0.000651235 0.000442415 0.000815601 0.000651235 0.000745604 0.000594103 0.000651235 0.000442415 0.000594103 0.000412776 0.000745604 0.000594103 0.000664247 0.000532014 0.000594103 0.000412776 0.000532014 0.00036146 0.000664247 0.000532014 0.000567899 0.000439021 0.000532014 0.00036146 0.000439021 0.000310144 0.000766752 0.000764385 0.000602448 0.000603374 0.000764385 0.000727816 0.000603374 0.00056109 0.000602448 0.000603374 0.000417343 0.000405854 0.000603374 0.00056109 0.000405854 0.000394365 0.00194666 0.00252202 0.00101357 0.00132051 0.00252202 0.00318227 0.00132051 0.00166479 0.00101357 0.00132051 0 0 0.00132051 0.00166479 0 0 0.00510843 0.00534358 0.00564281 0.0059271 0.00534358 0.00557873 0.0059271 0.00617869 0.00564281 0.0059271 0.00617718 0.00650846 0.0059271 0.00617869 0.00650846 0.00674813 0.00617718 0.00650846 0.0066728 0.00701701 0.00134037 0.00141938 0.00173678 0.00180042 0.00141938 0.00145862 0.00180042 0.00184803 0.00173678 0.00180042 0.00213319 0.00222318 0.00180042 0.00184803 0.00222318 0.00231316 0.00198896 0.00099448 0.00215872 0.00108898 0.00099448 0 0.00108898 0 0.00215872 0.00108898 0.00232556 0.00117988 0.00108898 0 0.00117988 0 0.00518623 0.00569947 0.00547142 0.00600355 0.00569947 0.00620543 0.00600355 0.00655854 0.00547142 0.00600355 0.00568351 0.0062647 0.00600355 0.00655854 0.0062647 0.00681269 0.00246397 0.00285149 0.00225818 0.00262732 0.00225818 0.00262732 0.00205239 0.00236044 0.00532146 0.00592293 0.00531177 0.00590897 0.00531177 0.00590897 0.0052198 0.0058163 0.00145862 0.00147501 0.00184803 0.00190237 0.00147501 0.0014914 0.00190237 0.00193267 0.00184803 0.00190237 0.00231316 0.00234355 0.00190237 0.00193267 0.00234355 0.00237394 0.0052198 0.0058163 0.00504031 0.00561342 0.00504031 0.00561342 0.00477048 0.00532157 0.00109633 0.000938719 0.00142021 0.00121781 0.000938719 0.000781106 0.00121781 0.00101375 0.00142021 0.00121781 0.00174409 0.00149525 0.00121781 0.00101375 0.00149525 0.0012464 0.00201409 0.00217949 0.00100704 0.0010995 0.00217949 0.00234264 0.0010995 0.00118849 0.00100704 0.0010995 0 0 0.0010995 0.00118849 0 0 0.00205239 0.00236044 0.00176066 0.00204345 0.00236044 0.0027147 0.00204345 0.00234666 0.00176066 0.00204345 0.00146892 0.00167436 0.00204345 0.00234666 0.00167436 0.00194666 0.00418709 0.00468666 0.00437905 0.00492416 0.00468666 0.00518623 0.00492416 0.00547142 0.00437905 0.00492416 0.00457102 0.00511366 0.00492416 0.00547142 0.00511366 0.00568351 0.00457102 0.00511366 0.00468789 0.00525669 0.00511366 0.00568351 0.00525669 0.0058391 0.00468789 0.00525669 0.00474141 0.00532146 0.00525669 0.0058391 0.00532146 0.00592293 0.000836814 0.000964463 0.000904999 0.00102994 0.000964463 0.00109211 0.00102994 0.00118024 0.000904999 0.00102994 0.000973184 0.00112078 0.00102994 0.00118024 0.00112078 0.00126837 0.00187597 0.00214993 0.00204565 0.00233415 0.00214993 0.0024239 0.00233415 0.00267196 0.00204565 0.00233415 0.00221534 0.00251942 0.00233415 0.00267196 0.00251942 0.00288465 0.00438071 0.0045087 0.00497972 0.00510517 0.0045087 0.00454408 0.00510517 0.00516499 0.00497972 0.00510517 0.00557873 0.00572043 0.00510517 0.00516499 0.00572043 0.00579143 0.00167701 0.00194617 0.00178438 0.0020545 0.00194617 0.00221534 0.0020545 0.0023837 0.00178438 0.0020545 0.00189175 0.0021558 0.0020545 0.0023837 0.0021558 0.00250489 0.00379423 0.00291946 0.00413711 0.00318599 0.00291946 0.00198896 0.00318599 0.00215872 0.00413711 0.00318599 0.00443843 0.00341983 0.00318599 0.00215872 0.00341983 0.00232556 0.00221534 0.00251942 0.0023837 0.0027056 0.00251942 0.00288465 0.0027056 0.00307923 0.0023837 0.0027056 0.00250489 0.00288935 0.0027056 0.00307923 0.00288935 0.0032738 0.00454408 0.00453686 0.00516499 0.00515429 0.00515429 0.00506176 0.00577905 0.00568672 0.00506176 0.00488869 0.00568672 0.00548946 0.00488869 0.0046267 0.00548946 0.00520352 0.00151623 0.00177119 0.00153542 0.00177944 0.00177119 0.00202614 0.00177944 0.00205218 0.00153542 0.00177944 0.00155461 0.00181641 0.00177944 0.00205218 0.00181641 0.00207822 0.00189175 0.0021558 0.00195894 0.00226365 0.0021558 0.00250489 0.00226365 0.00260451 0.00195894 0.00226365 0.00202614 0.00236514 0.00226365 0.00260451 0.00236514 0.00270413 0.0046267 0.00427962 0.00520352 0.0048089 0.00427962 0.00384951 0.0048089 0.00433072 0.00293455 0.00242381 0.00334166 0.00276845 0.00384951 0.00334166 0.00433072 0.00376007 0.00334166 0.00276845 0.00376007 0.00311309 0.000687294 0.000762602 0.000713716 0.000783443 0.000762602 0.000837909 0.000783443 0.000883513 0.000713716 0.000783443 0.000740137 0.000804213 0.000783443 0.000883513 0.000804213 0.000904662 0.00477048 0.00532157 0.00441262 0.00491815 0.00441262 0.00491815 0.00396895 0.00442899 0.00384219 0.00417659 0.00295644 0.00321653 0.00417659 0.0044706 0.00321653 0.00344477 0.00295644 0.00321653 0.00201409 0.00217949 0.00321653 0.00344477 0.00217949 0.00234264 0.00713691 0.00752616 0.0075405 0.00793314 0.000837909 0.000956059 0.000883513 0.000981211 0.000956059 0.00107421 0.000981211 0.00111481 0.000883513 0.000981211 0.000904662 0.00100436 0.000981211 0.00111481 0.00100436 0.00115542 0.00396895 0.00442899 0.00344375 0.00384484 0.00306174 0.00344375 0.00252202 0.00285215 0.00344375 0.00384484 0.00285215 0.00318227 0.00632558 0.00522409 0.00624301 0.00514965 0.00782975 0.00805734 0.00828953 0.00853356 0.00805734 0.00818594 0.00853356 0.00865619 0.00828953 0.00853356 0.00866042 0.00890573 0.00624301 0.00514965 0.00606059 0.00500447 0.00785585 0.00830135 0.00809286 0.00855501 0.00830135 0.00866042 0.00855501 0.00891532 0.00809286 0.00855501 0.00822855 0.00868494 0.00866042 0.00890573 0.00891532 0.00920255 0.00890573 0.00904828 0.00920255 0.00935425 0.00891532 0.00920255 0.00906548 0.00936194 0.00920255 0.00935425 0.00936194 0.00951819 0.00818594 0.00817377 0.00865619 0.00868358 0.00817377 0.00806122 0.00868358 0.00854766 0.00865619 0.00868358 0.00904828 0.00907143 0.00868358 0.00854766 0.00907143 0.00894587 0.00806122 0.00778596 0.00854766 0.00828414 0.00778596 0.00739828 0.00828414 0.00784987 0.00633618 0.0062505 0.00523335 0.00515636 0.0062505 0.00606562 0.00515636 0.00500912 0.00270413 0.00312439 0.00274241 0.00317179 0.00312439 0.00354465 0.00317179 0.0036533 0.00274241 0.00317179 0.00278069 0.0032126 0.00317179 0.0036533 0.0032126 0.00367535 0.00904828 0.00907143 0.00935425 0.00936987 0.00907143 0.00894587 0.00936987 0.00923562 0.00867407 0.00820607 0.00891634 0.00846464 0.00822855 0.00868494 0.00822108 0.00871767 0.00868494 0.00906548 0.00871767 0.00909425 0.00822108 0.00871767 0.00811148 0.00858519 0.00871767 0.00909425 0.00858519 0.00897263 0.00906548 0.00936194 0.00909425 0.00938354 0.00909425 0.00938354 0.00897263 0.00925344 0.00811148 0.00858519 0.00783723 0.00832372 0.00783723 0.00832372 0.00744645 0.00788855 0.00870362 0.00893708 0.00823798 0.00848703 0.00955403 0.009431 0.00943556 0.00930009 0.00739828 0.00684115 0.00784987 0.00727618 0.00684115 0.00617396 0.00727618 0.00655023 0.00617396 0.00535324 0.00655023 0.00570313 0.00535324 0.00443843 0.00570313 0.00470749 0.000740137 0.000804213 0.000756671 0.000825399 0.000804213 0.000904662 0.000825399 0.000927353 0.000756671 0.000825399 0.000773205 0.000831101 0.000825399 0.000927353 0.000831101 0.000928202 0.000904662 0.00100436 0.000927353 0.00102879 0.00100436 0.00115542 0.00102879 0.00116655 0.000927353 0.00102879 0.000928202 0.00105295 0.00102879 0.00116655 0.00105295 0.00117769 0.00109886 0.00128389 0.00083771 0.000975873 0.00128389 0.00146892 0.000975873 0.00114158 0.00083771 0.000975873 0.000576561 0.000666317 0.000975873 0.00114158 0.000666317 0.000756073 0.00117988 0 0.00124167 0 0.00124167 0 0.0012947 0 0.0012947 0 0.00133957 0 0.00133957 0 0.00136635 0 0.00136635 0 0.00137077 0 0.00557873 0.00572043 0.00617869 0.00633935 0.00131323 0 0.0012479 0 0.00688673 0.00731352 0.00621805 0.00658555 0.00621805 0.00658555 0.00539182 0.0057342 0.00539182 0.0057342 0.0044706 0.00473345 0.00146892 0.00167436 0.00114158 0.00129928 0.00167436 0.00194666 0.00129928 0.00148012 0.00114158 0.00129928 0.000756073 0.000884824 0.00129928 0.00148012 0.000884824 0.00101357 0.00