<?xml version="1.0" ?> 
<!-- 
# vtk DataFile Version 3.0
#This file was generated by the deal.II library on 23:53:48 at 2021/5/3
-->
<VTKFile type="UnstructuredGrid" version="0.1" byte_order="LittleEndian">
<UnstructuredGrid>
<FieldData>
<DataArray type="Float32" Name="CYCLE" NumberOfTuples="1" format="ascii">12</DataArray>
<DataArray type="Float32" Name="TIME" NumberOfTuples="1" format="ascii">0.024</DataArray>
</FieldData>
<Piece NumberOfPoints="4020" NumberOfCells="1005" >
  <Points>
    <DataArray type="Float32" NumberOfComponents="3" format="ascii">
-1 -1 0
-0.75 -1 0
-1 -0.75 0
-0.75 -0.75 0
-0.75 -1 0
-0.5 -1 0
-0.75 -0.75 0
-0.5 -0.75 0
-1 -0.75 0
-0.75 -0.75 0
-1 -0.5 0
-0.75 -0.5 0
-0.75 -0.75 0
-0.5 -0.75 0
-0.75 -0.5 0
-0.5 -0.5 0
-0.5 -1 0
-0.25 -1 0
-0.5 -0.75 0
-0.25 -0.75 0
-0.25 -1 0
0 -1 0
-0.25 -0.75 0
0 -0.75 0
-0.5 -0.75 0
-0.25 -0.75 0
-0.5 -0.5 0
-0.25 -0.5 0
-0.25 -0.75 0
0 -0.75 0
-0.25 -0.5 0
0 -0.5 0
-1 -0.5 0
-0.75 -0.5 0
-1 -0.25 0
-0.75 -0.25 0
-0.75 -0.5 0
-0.5 -0.5 0
-0.75 -0.25 0
-0.5 -0.25 0
-1 -0.25 0
-0.75 -0.25 0
-1 0 0
-0.75 0 0
-0.75 -0.25 0
-0.5 -0.25 0
-0.75 0 0
-0.5 0 0
-0.5 -0.5 0
-0.25 -0.5 0
-0.5 -0.25 0
-0.25 -0.25 0
-0.25 -0.5 0
0 -0.5 0
-0.25 -0.25 0
0 -0.25 0
-0.5 -0.25 0
-0.25 -0.25 0
-0.5 0 0
-0.25 0 0
-0.25 -0.25 0
0 -0.25 0
-0.25 0 0
0 0 0
0 -1 0
0.25 -1 0
0 -0.75 0
0.25 -0.75 0
-1 0 0
-0.75 0 0
-1 0.25 0
-0.75 0.25 0
-0.75 0 0
-0.5 0 0
-0.75 0.25 0
-0.5 0.25 0
-1 0.25 0
-0.75 0.25 0
-1 0.5 0
-0.75 0.5 0
-0.75 0.25 0
-0.5 0.25 0
-0.75 0.5 0
-0.5 0.5 0
-0.5 0 0
-0.25 0 0
-0.5 0.25 0
-0.25 0.25 0
-0.25 0 0
0 0 0
-0.25 0.25 0
0 0.25 0
-0.5 0.25 0
-0.25 0.25 0
-0.5 0.5 0
-0.25 0.5 0
-0.25 0.25 0
0 0.25 0
-0.25 0.5 0
0 0.5 0
-1 0.5 0
-0.75 0.5 0
-1 0.75 0
-0.75 0.75 0
-0.75 0.5 0
-0.5 0.5 0
-0.75 0.75 0
-0.5 0.75 0
-1 0.75 0
-0.75 0.75 0
-1 1 0
-0.75 1 0
-0.75 0.75 0
-0.5 0.75 0
-0.75 1 0
-0.5 1 0
-0.5 0.5 0
-0.25 0.5 0
-0.5 0.75 0
-0.25 0.75 0
-0.25 0.5 0
0 0.5 0
-0.25 0.75 0
0 0.75 0
-0.5 0.75 0
-0.25 0.75 0
-0.5 1 0
-0.25 1 0
-0.25 0.75 0
0 0.75 0
-0.25 1 0
0 1 0
0.25 -0.75 0
0.375 -0.75 0
0.25 -0.625 0
0.375 -0.625 0
0.5 -1 0
0.625 -1 0
0.5 -0.875 0
0.625 -0.875 0
0.625 -1 0
0.75 -1 0
0.625 -0.875 0
0.75 -0.875 0
0.75 -1 0
0.875 -1 0
0.75 -0.875 0
0.875 -0.875 0
0.875 -1 0
1 -1 0
0.875 -0.875 0
1 -0.875 0
0.875 -0.875 0
1 -0.875 0
0.875 -0.75 0
1 -0.75 0
0 -0.5 0
0.125 -0.5 0
0 -0.375 0
0.125 -0.375 0
0 -0.375 0
0.125 -0.375 0
0 -0.25 0
0.125 -0.25 0
0 -0.25 0
0.125 -0.25 0
0 -0.125 0
0.125 -0.125 0
0 -0.125 0
0.125 -0.125 0
0 0 0
0.125 0 0
0.125 -0.125 0
0.25 -0.125 0
0.125 0 0
0.25 0 0
0.25 -1 0
0.375 -1 0
0.25 -0.875 0
0.375 -0.875 0
0.375 -1 0
0.5 -1 0
0.375 -0.875 0
0.5 -0.875 0
0.25 -0.875 0
0.375 -0.875 0
0.25 -0.75 0
0.375 -0.75 0
0.375 -0.875 0
0.5 -0.875 0
0.375 -0.75 0
0.5 -0.75 0
0 -0.75 0
0.125 -0.75 0
0 -0.625 0
0.125 -0.625 0
0.125 -0.75 0
0.25 -0.75 0
0.125 -0.625 0
0.25 -0.625 0
0 -0.625 0
0.125 -0.625 0
0 -0.5 0
0.125 -0.5 0
0.125 -0.625 0
0.25 -0.625 0
0.125 -0.5 0
0.25 -0.5 0
0.3125 -0.25 0
0.375 -0.25 0
0.3125 -0.1875 0
0.375 -0.1875 0
0.625 -0.6875 0
0.6875 -0.6875 0
0.625 -0.625 0
0.6875 -0.625 0
0.6875 -0.6875 0
0.75 -0.6875 0
0.6875 -0.625 0
0.75 -0.625 0
0.5 -0.625 0
0.5625 -0.625 0
0.5 -0.5625 0
0.5625 -0.5625 0
0.5625 -0.625 0
0.625 -0.625 0
0.5625 -0.5625 0
0.625 -0.5625 0
0.375 -0.5 0
0.4375 -0.5 0
0.375 -0.4375 0
0.4375 -0.4375 0
0.375 -0.4375 0
0.4375 -0.4375 0
0.375 -0.375 0
0.4375 -0.375 0
0.3125 -0.375 0
0.375 -0.375 0
0.3125 -0.3125 0
0.375 -0.3125 0
0.3125 -0.3125 0
0.375 -0.3125 0
0.3125 -0.25 0
0.375 -0.25 0
0.875 -0.75 0
0.9375 -0.75 0
0.875 -0.6875 0
0.9375 -0.6875 0
0.9375 -0.75 0
1 -0.75 0
0.9375 -0.6875 0
1 -0.6875 0
0.9375 -0.6875 0
1 -0.6875 0
0.9375 -0.625 0
1 -0.625 0
0.25 -0.125 0
0.3125 -0.125 0
0.25 -0.0625 0
0.3125 -0.0625 0
0.25 -0.0625 0
0.3125 -0.0625 0
0.25 0 0
0.3125 0 0
0.3125 -0.0625 0
0.375 -0.0625 0
0.3125 0 0
0.375 0 0
0.5 -0.75 0
0.5625 -0.75 0
0.5 -0.6875 0
0.5625 -0.6875 0
0.25 -0.5 0
0.3125 -0.5 0
0.25 -0.4375 0
0.3125 -0.4375 0
0.375 -0.75 0
0.4375 -0.75 0
0.375 -0.6875 0
0.4375 -0.6875 0
0.4375 -0.75 0
0.5 -0.75 0
0.4375 -0.6875 0
0.5 -0.6875 0
0.375 -0.6875 0
0.4375 -0.6875 0
0.375 -0.625 0
0.4375 -0.625 0
0.4375 -0.6875 0
0.5 -0.6875 0
0.4375 -0.625 0
0.5 -0.625 0
0.25 -0.625 0
0.3125 -0.625 0
0.25 -0.5625 0
0.3125 -0.5625 0
0.3125 -0.625 0
0.375 -0.625 0
0.3125 -0.5625 0
0.375 -0.5625 0
0.25 -0.5625 0
0.3125 -0.5625 0
0.25 -0.5 0
0.3125 -0.5 0
0.3125 -0.5625 0
0.375 -0.5625 0
0.3125 -0.5 0
0.375 -0.5 0
0.375 -0.625 0
0.4375 -0.625 0
0.375 -0.5625 0
0.4375 -0.5625 0
0.5 -0.875 0
0.5625 -0.875 0
0.5 -0.8125 0
0.5625 -0.8125 0
0.5625 -0.875 0
0.625 -0.875 0
0.5625 -0.8125 0
0.625 -0.8125 0
0.5 -0.8125 0
0.5625 -0.8125 0
0.5 -0.75 0
0.5625 -0.75 0
0.5625 -0.8125 0
0.625 -0.8125 0
0.5625 -0.75 0
0.625 -0.75 0
0.625 -0.875 0
0.6875 -0.875 0
0.625 -0.8125 0
0.6875 -0.8125 0
0.6875 -0.875 0
0.75 -0.875 0
0.6875 -0.8125 0
0.75 -0.8125 0
0.625 -0.8125 0
0.6875 -0.8125 0
0.625 -0.75 0
0.6875 -0.75 0
0.6875 -0.8125 0
0.75 -0.8125 0
0.6875 -0.75 0
0.75 -0.75 0
0.75 -0.875 0
0.8125 -0.875 0
0.75 -0.8125 0
0.8125 -0.8125 0
0.8125 -0.875 0
0.875 -0.875 0
0.8125 -0.8125 0
0.875 -0.8125 0
0.75 -0.8125 0
0.8125 -0.8125 0
0.75 -0.75 0
0.8125 -0.75 0
0.8125 -0.8125 0
0.875 -0.8125 0
0.8125 -0.75 0
0.875 -0.75 0
0.125 -0.5 0
0.1875 -0.5 0
0.125 -0.4375 0
0.1875 -0.4375 0
0.1875 -0.5 0
0.25 -0.5 0
0.1875 -0.4375 0
0.25 -0.4375 0
0.125 -0.4375 0
0.1875 -0.4375 0
0.125 -0.375 0
0.1875 -0.375 0
0.1875 -0.4375 0
0.25 -0.4375 0
0.1875 -0.375 0
0.25 -0.375 0
0.125 -0.375 0
0.1875 -0.375 0
0.125 -0.3125 0
0.1875 -0.3125 0
0.1875 -0.375 0
0.25 -0.375 0
0.1875 -0.3125 0
0.25 -0.3125 0
0.125 -0.3125 0
0.1875 -0.3125 0
0.125 -0.25 0
0.1875 -0.25 0
0.1875 -0.3125 0
0.25 -0.3125 0
0.1875 -0.25 0
0.25 -0.25 0
0.125 -0.25 0
0.1875 -0.25 0
0.125 -0.1875 0
0.1875 -0.1875 0
0.1875 -0.25 0
0.25 -0.25 0
0.1875 -0.1875 0
0.25 -0.1875 0
0.125 -0.1875 0
0.1875 -0.1875 0
0.125 -0.125 0
0.1875 -0.125 0
0.1875 -0.1875 0
0.25 -0.1875 0
0.1875 -0.125 0
0.25 -0.125 0
0.75 -0.34375 0
0.78125 -0.34375 0
0.75 -0.3125 0
0.78125 -0.3125 0
0.78125 -0.34375 0
0.8125 -0.34375 0
0.78125 -0.3125 0
0.8125 -0.3125 0
0.90625 -0.3125 0
0.9375 -0.3125 0
0.90625 -0.28125 0
0.9375 -0.28125 0
0.875 -0.28125 0
0.90625 -0.28125 0
0.875 -0.25 0
0.90625 -0.25 0
0.9375 -0.3125 0
0.96875 -0.3125 0
0.9375 -0.28125 0
0.96875 -0.28125 0
0.96875 -0.3125 0
1 -0.3125 0
0.96875 -0.28125 0
1 -0.28125 0
0.75 -0.3125 0
0.78125 -0.3125 0
0.75 -0.28125 0
0.78125 -0.28125 0
0.78125 -0.3125 0
0.8125 -0.3125 0
0.78125 -0.28125 0
0.8125 -0.28125 0
0.71875 -0.125 0
0.75 -0.125 0
0.71875 -0.09375 0
0.75 -0.09375 0
0.6875 -0.09375 0
0.71875 -0.09375 0
0.6875 -0.0625 0
0.71875 -0.0625 0
0.6875 -0.0625 0
0.71875 -0.0625 0
0.6875 -0.03125 0
0.71875 -0.03125 0
0.6875 -0.03125 0
0.71875 -0.03125 0
0.6875 0 0
0.71875 0 0
0.9375 -0.25 0
0.96875 -0.25 0
0.9375 -0.21875 0
0.96875 -0.21875 0
0.96875 -0.25 0
1 -0.25 0
0.96875 -0.21875 0
1 -0.21875 0
0.9375 -0.21875 0
0.96875 -0.21875 0
0.9375 -0.1875 0
0.96875 -0.1875 0
0.96875 -0.21875 0
1 -0.21875 0
0.96875 -0.1875 0
1 -0.1875 0
0.9375 -0.1875 0
0.96875 -0.1875 0
0.9375 -0.15625 0
0.96875 -0.15625 0
0.96875 -0.1875 0
1 -0.1875 0
0.96875 -0.15625 0
1 -0.15625 0
0.9375 -0.15625 0
0.96875 -0.15625 0
0.9375 -0.125 0
0.96875 -0.125 0
0.96875 -0.15625 0
1 -0.15625 0
0.96875 -0.125 0
1 -0.125 0
0.9375 -0.375 0
0.96875 -0.375 0
0.9375 -0.34375 0
0.96875 -0.34375 0
0.96875 -0.375 0
1 -0.375 0
0.96875 -0.34375 0
1 -0.34375 0
0.9375 -0.34375 0
0.96875 -0.34375 0
0.9375 -0.3125 0
0.96875 -0.3125 0
0.75 -0.0625 0
0.78125 -0.0625 0
0.75 -0.03125 0
0.78125 -0.03125 0
0.78125 -0.0625 0
0.8125 -0.0625 0
0.78125 -0.03125 0
0.8125 -0.03125 0
0.75 -0.03125 0
0.78125 -0.03125 0
0.75 0 0
0.78125 0 0
0.8125 -0.0625 0
0.84375 -0.0625 0
0.8125 -0.03125 0
0.84375 -0.03125 0
0.84375 -0.0625 0
0.875 -0.0625 0
0.84375 -0.03125 0
0.875 -0.03125 0
0.8125 -0.03125 0
0.84375 -0.03125 0
0.8125 0 0
0.84375 0 0
0.84375 -0.03125 0
0.875 -0.03125 0
0.84375 0 0
0.875 0 0
0.875 -0.125 0
0.90625 -0.125 0
0.875 -0.09375 0
0.90625 -0.09375 0
0.90625 -0.0625 0
0.9375 -0.0625 0
0.90625 -0.03125 0
0.9375 -0.03125 0
0.90625 -0.03125 0
0.9375 -0.03125 0
0.90625 0 0
0.9375 0 0
0.65625 -0.25 0
0.6875 -0.25 0
0.65625 -0.21875 0
0.6875 -0.21875 0
0.65625 -0.21875 0
0.6875 -0.21875 0
0.65625 -0.1875 0
0.6875 -0.1875 0
0.6875 -0.25 0
0.71875 -0.25 0
0.6875 -0.21875 0
0.71875 -0.21875 0
0.6875 -0.21875 0
0.71875 -0.21875 0
0.6875 -0.1875 0
0.71875 -0.1875 0
0.625 -0.0625 0
0.65625 -0.0625 0
0.625 -0.03125 0
0.65625 -0.03125 0
0.65625 -0.0625 0
0.6875 -0.0625 0
0.65625 -0.03125 0
0.6875 -0.03125 0
0.625 -0.03125 0
0.65625 -0.03125 0
0.625 0 0
0.65625 0 0
0.9375 -0.0625 0
0.96875 -0.0625 0
0.9375 -0.03125 0
0.96875 -0.03125 0
0.9375 -0.03125 0
0.96875 -0.03125 0
0.9375 0 0
0.96875 0 0
0.96875 -0.03125 0
1 -0.03125 0
0.96875 0 0
1 0 0
0.65625 -0.34375 0
0.6875 -0.34375 0
0.65625 -0.3125 0
0.6875 -0.3125 0
0.6875 -0.34375 0
0.71875 -0.34375 0
0.6875 -0.3125 0
0.71875 -0.3125 0
0.71875 -0.34375 0
0.75 -0.34375 0
0.71875 -0.3125 0
0.75 -0.3125 0
0.65625 -0.3125 0
0.6875 -0.3125 0
0.65625 -0.28125 0
0.6875 -0.28125 0
0.65625 -0.28125 0
0.6875 -0.28125 0
0.65625 -0.25 0
0.6875 -0.25 0
0.6875 -0.3125 0
0.71875 -0.3125 0
0.6875 -0.28125 0
0.71875 -0.28125 0
0.71875 -0.3125 0
0.75 -0.3125 0
0.71875 -0.28125 0
0.75 -0.28125 0
0.6875 -0.28125 0
0.71875 -0.28125 0
0.6875 -0.25 0
0.71875 -0.25 0
0.9375 -0.46875 0
0.96875 -0.46875 0
0.9375 -0.4375 0
0.96875 -0.4375 0
0.96875 -0.46875 0
1 -0.46875 0
0.96875 -0.4375 0
1 -0.4375 0
0.9375 -0.4375 0
0.96875 -0.4375 0
0.9375 -0.40625 0
0.96875 -0.40625 0
0.96875 -0.4375 0
1 -0.4375 0
0.96875 -0.40625 0
1 -0.40625 0
0.9375 -0.40625 0
0.96875 -0.40625 0
0.9375 -0.375 0
0.96875 -0.375 0
0.96875 -0.40625 0
1 -0.40625 0
0.96875 -0.375 0
1 -0.375 0
0.53125 -0.0625 0
0.5625 -0.0625 0
0.53125 -0.03125 0
0.5625 -0.03125 0
0.53125 -0.03125 0
0.5625 -0.03125 0
0.53125 0 0
[...]
  <PointData Scalars="scalars">
    <DataArray type="Float32" Name="U" format="ascii">
0 0 0 -5.83232e-09 0 0 -5.83232e-09 6.28153e-09 0 -5.83232e-09 0 -1.03791e-07 -5.83232e-09 6.28153e-09 -1.03791e-07 5.92654e-07 0 0 6.28153e-09 3.05318e-07 0 0 3.05318e-07 -4.4439e-06 6.28153e-09 3.05318e-07 5.92654e-07 -2.91674e-06 3.05318e-07 -4.4439e-06 -2.91674e-06 1.23529e-05 0 -1.03791e-07 0 -1.7077e-07 -1.03791e-07 5.92654e-07 -1.7077e-07 8.70713e-07 0 -1.7077e-07 0 1.80944e-09 -1.7077e-07 8.70713e-07 1.80944e-09 7.51162e-09 5.92654e-07 -2.91674e-06 8.70713e-07 -3.9968e-06 -2.91674e-06 1.23529e-05 -3.9968e-06 1.6616e-05 8.70713e-07 -3.9968e-06 7.51162e-09 -5.76336e-08 -3.9968e-06 1.6616e-05 -5.76336e-08 0 0 0 -4.4439e-06 8.5517e-05 0 1.80944e-09 0 -5.63265e-10 1.80944e-09 7.51162e-09 -5.63265e-10 2.96318e-10 0 -5.63265e-10 0 1.60704e-10 -5.63265e-10 2.96318e-10 1.60704e-10 -4.24296e-10 7.51162e-09 -5.76336e-08 2.96318e-10 4.02313e-09 -5.76336e-08 0 4.02313e-09 0 2.96318e-10 4.02313e-09 -4.24296e-10 7.09442e-10 4.02313e-09 0 7.09442e-10 0 0 1.60704e-10 0 -4.12039e-11 1.60704e-10 -4.24296e-10 -4.12039e-11 1.47313e-10 0 -4.12039e-11 0 0 -4.12039e-11 1.47313e-10 0 0 -4.24296e-10 7.09442e-10 1.47313e-10 -3.98843e-10 7.09442e-10 0 -3.98843e-10 0 1.47313e-10 -3.98843e-10 0 0 -3.98843e-10 0 0 0 8.5517e-05 0.000291137 0.000290776 0.000932775 0 0 0.000123786 0.000203653 0 0 0.000203653 0.000210265 0 0 0.000210265 0.000114827 0 0 0.000114827 0 0.000114827 0 0.000613414 0 1.23529e-05 0.000122334 1.44845e-05 0.000202105 1.44845e-05 0.000202105 1.6616e-05 0.000208189 1.6616e-05 0.000208189 8.308e-06 0.000113923 8.308e-06 0.000113923 0 0 0.000113923 0.000613282 0 0 0 0 4.27585e-05 6.44386e-05 0 0 6.44386e-05 0.000123786 4.27585e-05 6.44386e-05 8.5517e-05 0.000291137 6.44386e-05 0.000123786 0.000291137 0.000613059 -4.4439e-06 4.05366e-05 3.95451e-06 6.31295e-05 4.05366e-05 8.5517e-05 6.31295e-05 0.000290776 3.95451e-06 6.31295e-05 1.23529e-05 0.000122334 6.31295e-05 0.000290776 0.000122334 0.000612757 0.00185129 0.00343796 0.00163261 0.00305539 0.0017506 0.00188906 0.00321776 0.00349276 0.00188906 0.00183757 0.00349276 0.00342233 0.0021408 0.00275645 0.00360791 0.00481043 0.00275645 0.00321776 0.00481043 0.00561602 0.00214065 0.00360784 0.00275628 0.00481046 0.00275628 0.00481046 0.00321941 0.00561679 0.00175335 0.00321941 0.00189021 0.00349644 0.00189021 0.00349644 0.00185129 0.00343796 0.000613414 0.000306707 0.0012226 0.000661004 0.000306707 0 0.000661004 0 0.000661004 0 0.00126343 0 0.000613282 0.00122643 0.000306641 0.000661485 0.000306641 0.000661485 0 0 0.000661485 0.00126386 0 0 0.000613059 0.000789907 0.00118686 0.00151126 0.000612757 0.00118668 0.000789597 0.00151102 0.000291137 0.000452098 0.000611956 0.000859937 0.000452098 0.000613059 0.000859937 0.00118686 0.000611956 0.000859937 0.000932775 0.00150698 0.000859937 0.00118686 0.00150698 0.0021408 0.000290776 0.000611776 0.000451767 0.000859769 0.000611776 0.000932775 0.000859769 0.00150691 0.000451767 0.000859769 0.000612757 0.00118668 0.000859769 0.00150691 0.00118668 0.00214065 0.000932775 0.00150698 0.00150691 0.00244247 0.000123786 0.00016372 0.000368423 0.000394845 0.00016372 0.000203653 0.000394845 0.000456593 0.000368423 0.000394845 0.000613059 0.000789907 0.000394845 0.000456593 0.000789907 0.000912229 0.000203653 0.000206959 0.000456593 0.000485739 0.000206959 0.000210265 0.000485739 0.000473688 0.000456593 0.000485739 0.000912229 0.000956639 0.000485739 0.000473688 0.000956639 0.000950597 0.000210265 0.000162546 0.000473688 0.000415751 0.000162546 0.000114827 0.000415751 0.00036412 0.000473688 0.000415751 0.000950597 0.000836579 0.000415751 0.00036412 0.000836579 0.000613414 0.000122334 0.000367546 0.00016222 0.000394256 0.000367546 0.000612757 0.000394256 0.000789597 0.00016222 0.000394256 0.000202105 0.000456267 0.000394256 0.000789597 0.000456267 0.0009129 0.000202105 0.000456267 0.000205147 0.000485625 0.000456267 0.0009129 0.000485625 0.000958936 0.000205147 0.000485625 0.000208189 0.000474161 0.000485625 0.000958936 0.000474161 0.000946882 0.000208189 0.000474161 0.000161056 0.000415598 0.000474161 0.000946882 0.000415598 0.00083232 0.000161056 0.000415598 0.000113923 0.000363603 0.000415598 0.00083232 0.000363603 0.000613282 0.0168508 0.0164145 0.0172281 0.0167457 0.0164145 0.015565 0.0167457 0.0158948 0.0108818 0.00796225 0.0108866 0.00806903 0.0131056 0.0108866 0.0130324 0.0108329 0.00796225 0.00443475 0.00806903 0.00446329 0.00443475 0 0.00446329 0 0.0172281 0.0167457 0.0173477 0.016892 0.0167457 0.0158948 0.016892 0.0160081 0.0131063 0.0130333 0.0108875 0.0108337 0.0108824 0.0108875 0.00796287 0.00806954 0.00796287 0.00806954 0.00443516 0.00446346 0.00443516 0.00446346 0 0 0.00796776 0.0044475 0.00778347 0.004302 0.0044475 0 0.004302 0 0.00778347 0.004302 0.00747039 0.00416079 0.004302 0 0.00416079 0 0.00747039 0.00416079 0.00701024 0.0039001 0.00416079 0 0.0039001 0 0.00701024 0.0039001 0.00635242 0.00361708 0.0039001 0 0.00361708 0 0.00754286 0.00420496 0.00783053 0.0043534 0.00420496 0 0.0043534 0 0.00783053 0.0043534 0.00796225 0.00443475 0.00796555 0.00777496 0.00443894 0.00432766 0.00777496 0.00746148 0.00432766 0.00418593 0.00443894 0.00432766 0 0 0.00746148 0.00700568 0.00418593 0.00388984 0.00700568 0.00635161 0.00388984 0.00361187 0.00418593 0.00388984 0 0 0.00388984 0.00361187 0 0 0.0100996 0.00848724 0.00848792 0.00717656 0.00545753 0.00418094 0.00311107 0.00243371 0.00311107 0.00243371 0 0 0.016851 0.0172282 0.0164147 0.0167458 0.0164147 0.0167458 0.0155652 0.0158951 0.0172282 0.0173478 0.0167458 0.0168921 0.0167458 0.0168921 0.0158951 0.0160083 0.007543 0.00783082 0.00420504 0.00435358 0.00783082 0.00796287 0.00435358 0.00443516 0.00420504 0.00435358 0 0 0.00418094 0.00246643 0.00243371 0.00150608 0.00243371 0.00150608 0 0 0.00150608 0 0 0 0.0166032 0.0169362 0.0169363 0.0173085 0.0169362 0.0170709 0.0173085 0.0174279 0.0170709 0.0168508 0.0174279 0.0172281 0.0169363 0.0173085 0.017071 0.0174279 0.017071 0.0174279 0.016851 0.0172282 0.0173085 0.0174279 0.0174279 0.0175644 0.0174279 0.0172281 0.0175644 0.0173477 0.0174279 0.0175644 0.0172282 0.0173478 0.00570693 0.00318715 0.00654118 0.00365493 0.00318715 0 0.00365493 0 0.00654118 0.00365493 0.00715415 0.00397172 0.00365493 0 0.00397172 0 0.00715415 0.00397172 0.00754286 0.00420496 0.00397172 0 0.00420496 0 0.00570699 0.00654127 0.00318718 0.00365497 0.00318718 0.00365497 0 0 0.00654127 0.00715425 0.00365497 0.00397177 0.00715425 0.007543 0.00397177 0.00420504 0.00365497 0.00397177 0 0 0.00397177 0.00420504 0 0 0.00342233 0.00326578 0.00452229 0.00435809 0.00326578 0.00306224 0.00435809 0.00406243 0.00452229 0.00435809 0.0059702 0.00575961 0.00435809 0.00406243 0.00575961 0.00540125 0.00306224 0.00271995 0.00406243 0.00367316 0.00271995 0.0023519 0.00367316 0.00313612 0.00406243 0.00367316 0.00540125 0.00490709 0.00367316 0.00313612 0.00490709 0.00423288 0.0023519 0.00182572 0.00313612 0.0024925 0.00182572 0.00126343 0.0024925 0.00178975 0.00313612 0.0024925 0.00423288 0.00341312 0.0024925 0.00178975 0.00341312 0.00237425 0.00237425 0.00120823 0.00321607 0.00169802 0.00120823 0 0.00169802 0 0.00321607 0.00169802 0.00446038 0.00250012 0.00169802 0 0.00250012 0 0.00586442 0.00705215 0.00705217 0.00852329 0.00705215 0.00812201 0.00852329 0.00983305 0.00705217 0.00852329 0.00812208 0.00983309 0.00852329 0.00983305 0.00983309 0.0113709 0.00343796 0.00451698 0.00324668 0.00434529 0.00451698 0.00596805 0.00434529 0.00575534 0.00324668 0.00434529 0.00305539 0.00405691 0.00434529 0.00575534 0.00405691 0.00539641 0.00305539 0.00405691 0.00272872 0.00367262 0.00405691 0.00539641 0.00367262 0.00490495 0.00272872 0.00367262 0.0023584 0.00313779 0.00367262 0.00490495 0.00313779 0.00423263 0.0023584 0.00313779 0.00182754 0.0024934 0.00313779 0.00423263 0.0024934 0.00341332 0.00182754 0.0024934 0.00126386 0.00179002 0.0024934 0.00341332 0.00179002 0.00237436 0.00237436 0.00321606 0.00120825 0.00169802 0.00321606 0.0044604 0.00169802 0.00250013 0.00120825 0.00169802 0 0 0.00169802 0.00250013 0 0 0.00812201 0.00881194 0.00983305 0.0106631 0.00881194 0.00945178 0.0106631 0.0114213 0.00983305 0.0106631 0.0113709 0.012328 0.0106631 0.0114213 0.012328 0.0132031 0.00812208 0.00983309 0.00881217 0.0106632 0.00983309 0.0113709 0.0106632 0.0123281 0.00881217 0.0106632 0.00945217 0.0114216 0.0106632 0.0123281 0.0114216 0.0132033 0.0113709 0.012328 0.0123281 0.0133801 0.012328 0.0132031 0.0133801 0.0143399 0.0123281 0.0133801 0.0132033 0.01434 0.0133801 0.0143399 0.01434 0.0153732 0.0100035 0.00963608 0.0120774 0.0116589 0.00963608 0.00920202 0.0116589 0.0111578 0.0120774 0.0116589 0.0139637 0.0134928 0.0116589 0.0111578 0.0134928 0.0129209 0.00360791 0.00420917 0.0046816 0.00546484 0.00420917 0.00481043 0.00546484 0.00617965 0.0046816 0.00546484 0.00586442 0.00705215 0.00546484 0.00617965 0.00705215 0.00812201 0.00481043 0.00521322 0.00617965 0.00680782 0.00521322 0.00561602 0.00680782 0.00724096 0.00321776 0.00335526 0.00441689 0.0044705 0.00335526 0.00349276 0.0044705 0.00458159 0.00441689 0.0044705 0.00561602 0.00590057 0.0044705 0.00458159 0.00590057 0.00603837 0.00349276 0.00345755 0.00458159 0.00460211 0.00345755 0.00342233 0.00460211 0.00452229 0.00458159 0.00460211 0.00603837 0.0060667 0.00460211 0.00452229 0.0060667 0.0059702 0.00920202 0.00838551 0.0111578 0.0102145 0.00838551 0.00746708 0.0102145 0.00912862 0.0111578 0.0102145 0.0129209 0.0118238 0.0102145 0.00912862 0.0118238 0.0106073 0.00360784 0.00468158 0.00420915 0.00546483 0.00468158 0.00586442 0.00546483 0.00705217 0.00420915 0.00546483 0.00481046 0.00617973 0.00546483 0.00705217 0.00617973 0.00812208 0.0139637 0.0134928 0.0151797 0.014664 0.0134928 0.0129209 0.014664 0.0140084 0.0151797 0.014664 0.0162717 0.0157033 0.014664 0.0140084 0.0157033 0.0150096 0.00481046 0.00617973 0.00521362 0.00680808 0.00521362 0.00680808 0.00561679 0.00724153 0.0100037 0.012078 0.00963584 0.0116593 0.012078 0.0139642 0.0116593 0.0134933 0.00963584 0.0116593 0.00920172 0.0111581 0.0116593 0.0134933 0.0111581 0.0129212 0.0139642 0.0151801 0.0134933 0.0146643 0.0151801 0.0162719 0.0146643 0.0157036 0.0134933 0.0146643 0.0129212 0.0140088 0.0146643 0.0157036 0.0140088 0.0150098 0.00321941 0.0044181 0.00335792 0.00447307 0.0044181 0.00561679 0.00447307 0.00590217 0.00335792 0.00447307 0.00349644 0.00458432 0.00447307 0.00590217 0.00458432 0.00604052 0.00349644 0.00458432 0.0034672 0.00460388 0.00458432 0.00604052 0.00460388 0.00606755 0.0034672 0.00460388 0.00343796 0.00451698 0.00460388 0.00606755 0.00451698 0.00596805 0.00920172 0.0111581 0.00838529 0.0102147 0.0111581 0.0129212 0.0102147 0.0118241 0.00838529 0.0102147 0.007467 0.00912874 0.0102147 0.0118241 0.00912874 0.0106075 0.00945178 0.00979189 0.0114213 0.0118208 0.00979189 0.0100711 0.0118208 0.0121466 0.0114213 0.0118208 0.0132031 0.0136594 0.0118208 0.0121466 0.0136594 0.0140345 0.0100711 0.0100687 0.0121466 0.0121507 0.0100687 0.0100035 0.0121507 0.0120774 0.0121466 0.0121507 0.0140345 0.0140414 0.0121507 0.0120774 0.0140414 0.0139637 0.0132031 0.0136594 0.0143399 0.0148396 0.0136594 0.0140345 0.0148396 0.0152493 0.0143399 0.0148396 0.0153732 0.0158945 0.0148396 0.0152493 0.0158945 0.0163396 0.0140345 0.0140414 0.0152493 0.0152609 0.0140414 0.0139637 0.0152609 0.0151797 0.0152493 0.0152609 0.0163396 0.0163504 0.0152609 0.0151797 0.0163504 0.0162717 0.00945217 0.0114216 0.00979254 0.0118213 0.0114216 0.0132033 0.0118213 0.0136597 0.00979254 0.0118213 0.0100718 0.0121472 0.0118213 0.0136597 0.0121472 0.0140349 0.0132033 0.01434 0.0136597 0.0148398 0.01434 0.0153732 0.0148398 0.0158946 0.0136597 0.0148398 0.0140349 0.0152496 0.0148398 0.0158946 0.0152496 0.0163398 0.0100718 0.0121472 0.0100693 0.0121513 0.0121472 0.0140349 0.0121513 0.0140418 0.0100693 0.0121513 0.0100037 0.012078 0.0121513 0.0140418 0.012078 0.0139642 0.0140349 0.0152496 0.0140418 0.0152613 0.0152496 0.0163398 0.0152613 0.0163506 0.0140418 0.0152613 0.0139642 0.0151801 0.0152613 0.0163506 0.0151801 0.0162719 0.000950597 0.000893588 0.00136776 0.00130479 0.000893588 0.000836579 0.00130479 0.00121572 0.00136776 0.00130479 0.00183757 0.00175395 0.00130479 0.00121572 0.00175395 0.00163383 0.000836579 0.000724996 0.00121572 0.001075 0.000724996 0.000613414 0.001075 0.000918009 0.00121572 0.001075 0.00163383 0.00143867 0.001075 0.000918009 0.00143867 0.0012226 0.00183757 0.00175395 0.00262995 0.00247134 0.00175395 0.00163383 0.00247134 0.00230188 0.00262995 0.00247134 0.00342233 0.00326578 0.00247134 0.00230188 0.00326578 0.00306224 0.00163383 0.00143867 0.00230188 0.00203552 0.00143867 0.0012226 0.00203552 0.00174534 0.00230188 0.00203552 0.00306224 0.00271995 0.00203552 0.00174534 0.00271995 0.0023519 0.00126343 0.000631713 0.00178975 0.000901221 0.000631713 0 0.000901221 0 0.00178975 0.000901221 0.00237425 0.00120823 0.000901221 0 0.00120823 0 0.000946882 0.00136631 0.000889601 0.00129308 0.00136631 0.00185129 0.00129308 0.00174195 0.000889601 0.00129308 0.00083232 0.00120539 0.00129308 0.00174195 0.00120539 0.00163261 0.00083232 0.00120539 0.000722801 0.00107376 0.00120539 0.00163261 0.00107376 0.00144847 0.000722801 0.00107376 0.000613282 0.000919854 0.00107376 0.00144847 0.000919854 0.00122643 0.00163261 0.002344 0.00144847 0.00205383 0.002344 0.00305539 0.00205383 0.00272872 0.00144847 0.00205383 0.00122643 0.0017524 0.00205383 0.00272872 0.0017524 0.0023584 0.00126386 0.00179002 0.000631928 0.000901288 0.00179002 0.00237436 0.000901288 0.00120825 0.000631928 0.000901288 0 0 0.000901288 0.00120825 0 0 0.000912229 0.000934434 0.00130763 0.00135293 0.000934434 0.000956639 0.00135293 0.00138983 0.00130763 0.00135293 0.0017506 0.00181983 0.00135293 0.00138983 0.00181983 0.00188906 0.000956639 0.000953618 0.00138983 0.00138264 0.000953618 0.000950597 0.00138264 0.00136776 0.00138983 0.00138264 0.00188906 0.00186332 0.00138264 0.00136776 0.00186332 0.00183757 0.0009129 0.00130894 0.000935918 0.00135567 0.00130894 0.00175335 0.00135567 0.00182178 0.000935918 0.00135567 0.000958936 0.00139135 0.00135567 0.00182178 0.00139135 0.00189021 0.000958936 0.00139135 0.000952909 0.00138505 0.00139135 0.00189021 0.00138505 0.00187075 0.000952909 0.00138505 0.000946882 0.00136631 0.00138505 0.00187075 0.00136631 0.00185129 0.0172145 0.0166481 0.0166482 0.0161138 0.0166481 0.0159658 0.0161138 0.0154469 0.0166482 0.0161138 0.015966 0.015447 0.0161138 0.0154469 0.015447 0.0148145 0.0159658 0.0145911 0.0154469 0.0141456 0.0145911 0.0130324 0.0141456 0.0126481 0.0154469 0.0141456 0.0148145 0.0135862 0.0141456 0.0126481 0.0135862 0.0121801 0.015966 0.015447 0.0145916 0.014146 0.015447 0.0148145 0.014146 0.0135865 0.0145916 0.014146 0.0130333 0.0126489 0.014146 0.0135865 0.0126489 0.0121809 0.0148145 0.0135862 0.0135865 0.0124855 0.0135862 0.0121801 0.0124855 0.0112101 0.0135865 0.0124855 0.0121809 0.0112105 0.0124855 0.0112101 0.0112105 0.0100996 0.0012226 0.000941804 0.00174534 0.00136005 0.000941804 0.000661004 0.00136005 0.000962215 0.00174534 0.00136005 0.0023519 0.00182572 0.00136005 0.000962215 0.00182572 0.00126343 0.00122643 0.0017524 0.000943955 0.00136224 0.0017524 0.0023584 0.00136224 0.00182754 0.000943955 0.00136224 0.000661485 0.000962671 0.00136224 0.00182754 0.000962671 0.00126386 0.000789907 0.000851068 0.00115058 0.00123518 0.000851068 0.000912229 0.00123518 0.00130763 0.00115058 0.00123518 0.00151126 0.00164419 0.00123518 0.00130763 0.00164419 0.0017506 0.00118686 0.00134906 0.00166383 0.00186918 0.00134906 0.00151126 0.00186918 0.00209235 0.00166383 0.00186918 0.0021408 0.00244862 0.00186918 0.00209235 0.00244862 0.00275645 0.00151126 0.00164419 0.00209235 0.00228619 0.00164419 0.0017506 0.00228619 0.00248418 0.00209235 0.00228619 0.00275645 0.0029871 0.00228619 0.00248418 0.0029871 0.00321776 0.00118668 0.00166367 0.00134885 0.00186898 0.00166367 0.00214065 0.00186898 0.00244846 0.00134885 0.00186898 0.00151102 0.00209229 0.00186898 0.00244846 0.00209229 0.00275628 0.000789597 0.00115031 0.000851249 0.00123531 0.00115031 0.00151102 0.00123531 0.00164439 0.000851249 0.00123531 0.0009129 0.00130894 0.00123531 0.00164439 0.00130894 0.00175335 0.00151102 0.00209229 0.00164439 0.00228657 0.00209229 0.00275628 0.00228657 0.00298785 0.00164439 0.00228657 0.00175335 0.00248638 0.00228657 0.00298785 0.00248638 0.00321941 0.00150698 0.00182389 0.00197473 0.00241095 0.00182389 0.0021408 0.00241095 0.00287435 0.00197473 0.00241095 0.00244247 0.00301909 0.00241095 0.00287435 0.00301909 0.00360791 0.00150691 0.00197469 0.00182378 0.00241089 0.00197469 0.00244247 0.00241089 0.00301905 0.00182378 0.00241089 0.00214065 0.00287424 0.00241089 0.00301905 0.00287424 0.00360784 0.00244247 0.00301909 0.00301905 0.00382672 0.00301909 0.00360791 0.00382672 0.0046816 0.00301905 0.00382672 0.00360784 0.00468158 0.00382672 0.0046816 0.00468158 0.00586442 0.0129209 0.0123724 0.0134646 0.0129508 0.0123724 0.0118238 0.0129508 0.0124265 0.0134646 0.0129508 0.0140084 0.0135263 0.0129508 0.0124265 0.0135263 0.0130423 0.0118238 0.0112156 0.0124265 0.0117558 0.0112156 0.0106073 0.0117558 0.0110718 0.0124265 0.0117558 0.0130423 0.0123001 0.0117558 0.0110718 0.0123001 0.0115488 0.0140084 0.0135263 0.014509 0.0139767 0.0135263 0.0130423 0.0139767 0.013436 0.014509 0.0139767 0.0150096 0.0144172 0.0139767 0.013436 0.0144172 0.0138248 0.0130423 0.0123001 0.013436 0.0126746 0.0123001 0.0115488 0.0126746 0.0118989 0.013436 0.0126746 0.0138248 0.013043 0.0126746 0.0118989 0.013043 0.0122401 0.0162717 0.0159875 0.0165585 0.0163156 0.0159875 0.0157033 0.0163156 0.0160545 0.0165585 0.0163156 0.0168508 0.0166327 0.0163156 0.0160545 0.0166327 0.0164145 0.0157033 0.0153564 0.0160545 0.0156803 0.0153564 0.0150096 0.0156803 0.0152847 0.0160545 0.0156803 0.0164145 0.0159897 0.0156803 0.0152847 0.0159897 0.015565 0.0130191 0.0119601 0.0130678 0.0119879 0.0119601 0.0108818 0.0119879 0.0108842 0.0130678 0.0119879 0.0131056 0.0119961 0.0119879 0.0108842 0.0119961 0.0108866 0.0108866 0.00947784 0.0108598 0.00944901 0.00947784 0.00806903 0.00944901 0.00801418 0.0108598 0.00944901 0.0108329 0.00941317 0.00944901 0.00801418 0.00941317 0.00796776 0.00806903 0.00626616 0.00801418 0.00623897 0.00626616 0.00446329 0.00623897 0.00444818 0.00801418 0.00623897 0.00796776 0.00620763 0.00623897 0.00444818 0.00620763 0.0044475 0.00446329 0.00223164 0.00444818 0.00223426 0.00223164 0 0.00223426 0 0.00444818 0.00223426 0.0044475 0.00222375 0.00223426 0 0.00222375 0 0.0150096 0.0144172 0.0152847 0.0147137 0.0144172 0.0138248 0.0147137 0.0141335 0.0152847 0.0147137 0.015565 0.0150049 0.0147137 0.0141335 0.0150049 0.0144335 0.0138248 0.013043 0.0141335 0.0133277 0.013043 0.0122401 0.0133277 0.0124999 0.0141335 0.0133277 0.0144335 0.0136011 0.0133277 0.0124999 0.0136011 0.0127485 0.015565 0.0150049 0.0157299 0.0151677 0.0150049 0.0144335 0.0151677 0.0145841 0.0157299 0.0151677 0.0158948 0.0153175 0.0151677 0.0145841 0.0153175 0.0147243 0.0144335 0.0136011 0.0145841 0.0137459 0.0136011 0.0127485 0.0137459 0.0128881 0.0145841 0.0137459 0.0147243 0.0138815 0.0137459 0.0128881 0.0138815 0.0130191 0.0173477 0.0171198 0.017281 0.0170365 0.0171198 0.016892 0.0170365 0.0167685 0.017281 0.0170365 0.0172145 0.0169313 0.0170365 0.0167685 0.0169313 0.0166481 0.016892 0.01645 0.0167685 0.0163829 0.01645 0.0160081 0.0163829 0.0159864 0.0167685 0.0163829 0.0166481 0.0163069 0.0163829 0.0159864 0.0163069 0.0159658 0.0130196 0.0130684 0.0119606 0.0119885 0.0130684 0.0131063 0.0119885 0.0119969 0.0119606 0.0119885 0.0108824 0.0108849 0.0119885 0.0119969 0.0108849 0.0108875 0.0108875 0.0108606 0.00947852 0.00944948 0.0108606 0.0108337 0.00944948 0.00941278 0.00947852 0.00944948 0.00806954 0.00801404 0.00944948 0.00941278 0.00801404 0.00796555 0.00806954 0.00801404 0.0062665 0.00623778 0.00801404 0.00796555 0.00623778 0.00620224 0.0062665 0.00623778 0.00446346 0.00444605 0.00623778 0.00620224 0.00444605 0.00443894 0.00446346 0.00444605 0.00223173 0.00223309 0.00444605 0.00443894 0.00223309 0.00221947 0.00223173 0.00223309 0 0 0.00223309 0.0022