<?xml version="1.0" ?> 
<!-- 
# vtk DataFile Version 3.0
#This file was generated by the deal.II library on 23:53:51 at 2021/5/3
-->
<VTKFile type="UnstructuredGrid" version="0.1" byte_order="LittleEndian">
<UnstructuredGrid>
<FieldData>
<DataArray type="Float32" Name="CYCLE" NumberOfTuples="1" format="ascii">95</DataArray>
<DataArray type="Float32" Name="TIME" NumberOfTuples="1" format="ascii">0.19</DataArray>
</FieldData>
<Piece NumberOfPoints="6972" NumberOfCells="1743" >
  <Points>
    <DataArray type="Float32" NumberOfComponents="3" format="ascii">
-1 -1 0
-0.75 -1 0
-1 -0.75 0
-0.75 -0.75 0
-0.75 -1 0
-0.5 -1 0
-0.75 -0.75 0
-0.5 -0.75 0
-1 -0.75 0
-0.75 -0.75 0
-1 -0.5 0
-0.75 -0.5 0
-0.75 -0.75 0
-0.5 -0.75 0
-0.75 -0.5 0
-0.5 -0.5 0
-0.5 -0.75 0
-0.25 -0.75 0
-0.5 -0.5 0
-0.25 -0.5 0
-0.5 -1 0
-0.375 -1 0
-0.5 -0.875 0
-0.375 -0.875 0
-0.375 -1 0
-0.25 -1 0
-0.375 -0.875 0
-0.25 -0.875 0
-0.5 -0.875 0
-0.375 -0.875 0
-0.5 -0.75 0
-0.375 -0.75 0
-0.375 -0.875 0
-0.25 -0.875 0
-0.375 -0.75 0
-0.25 -0.75 0
-1 -0.25 0
-0.875 -0.25 0
-1 -0.125 0
-0.875 -0.125 0
-0.875 -0.25 0
-0.75 -0.25 0
-0.875 -0.125 0
-0.75 -0.125 0
-1 -0.125 0
-0.875 -0.125 0
-1 0 0
-0.875 0 0
0.125 -0.75 0
0.25 -0.75 0
0.125 -0.625 0
0.25 -0.625 0
0.125 -0.625 0
0.25 -0.625 0
0.125 -0.5 0
0.25 -0.5 0
0.125 -0.5 0
0.25 -0.5 0
0.125 -0.375 0
0.25 -0.375 0
0.125 -0.375 0
0.25 -0.375 0
0.125 -0.25 0
0.25 -0.25 0
0 -0.25 0
0.125 -0.25 0
0 -0.125 0
0.125 -0.125 0
0.125 -0.25 0
0.25 -0.25 0
0.125 -0.125 0
0.25 -0.125 0
0.125 -0.125 0
0.25 -0.125 0
0.125 0 0
0.25 0 0
-1 0 0
-0.875 0 0
-1 0.125 0
-0.875 0.125 0
-0.875 0 0
-0.75 0 0
-0.875 0.125 0
-0.75 0.125 0
-1 0.125 0
-0.875 0.125 0
-1 0.25 0
-0.875 0.25 0
-0.5 -0.5 0
-0.375 -0.5 0
-0.5 -0.375 0
-0.375 -0.375 0
-0.375 -0.5 0
-0.25 -0.5 0
-0.375 -0.375 0
-0.25 -0.375 0
0 -1 0
0.125 -1 0
0 -0.875 0
0.125 -0.875 0
0.125 -1 0
0.25 -1 0
0.125 -0.875 0
0.25 -0.875 0
0.125 -0.875 0
0.25 -0.875 0
0.125 -0.75 0
0.25 -0.75 0
0.25 -1 0
0.375 -1 0
0.25 -0.875 0
0.375 -0.875 0
0.375 -1 0
0.5 -1 0
0.375 -0.875 0
0.5 -0.875 0
0.5 -1 0
0.625 -1 0
0.5 -0.875 0
0.625 -0.875 0
0.625 -1 0
0.75 -1 0
0.625 -0.875 0
0.75 -0.875 0
0.75 -1 0
0.875 -1 0
0.75 -0.875 0
0.875 -0.875 0
0.875 -1 0
1 -1 0
0.875 -0.875 0
1 -0.875 0
0.75 -0.875 0
0.875 -0.875 0
0.75 -0.75 0
0.875 -0.75 0
0.875 -0.875 0
1 -0.875 0
0.875 -0.75 0
1 -0.75 0
0.875 -0.75 0
1 -0.75 0
0.875 -0.625 0
1 -0.625 0
0.875 -0.625 0
1 -0.625 0
0.875 -0.5 0
1 -0.5 0
-1 0.25 0
-0.875 0.25 0
-1 0.375 0
-0.875 0.375 0
-0.875 0.25 0
-0.75 0.25 0
-0.875 0.375 0
-0.75 0.375 0
-1 0.375 0
-0.875 0.375 0
-1 0.5 0
-0.875 0.5 0
-1 0.875 0
-0.875 0.875 0
-1 1 0
-0.875 1 0
0.25 -0.125 0
0.375 -0.125 0
0.25 0 0
0.375 0 0
0.375 -0.125 0
0.5 -0.125 0
0.375 0 0
0.5 0 0
0.875 -0.5 0
1 -0.5 0
0.875 -0.375 0
1 -0.375 0
0.875 -0.375 0
1 -0.375 0
0.875 -0.25 0
1 -0.25 0
0.5 -0.125 0
0.625 -0.125 0
0.5 0 0
0.625 0 0
0.625 -0.125 0
0.75 -0.125 0
0.625 0 0
0.75 0 0
-1 -0.5 0
-0.875 -0.5 0
-1 -0.375 0
-0.875 -0.375 0
-0.875 -0.5 0
-0.75 -0.5 0
-0.875 -0.375 0
-0.75 -0.375 0
-1 -0.375 0
-0.875 -0.375 0
-1 -0.25 0
-0.875 -0.25 0
-0.875 -0.375 0
-0.75 -0.375 0
-0.875 -0.25 0
-0.75 -0.25 0
-0.25 -1 0
-0.125 -1 0
-0.25 -0.875 0
-0.125 -0.875 0
-0.125 -1 0
0 -1 0
-0.125 -0.875 0
0 -0.875 0
-0.25 -0.875 0
-0.125 -0.875 0
-0.25 -0.75 0
-0.125 -0.75 0
-0.125 -0.875 0
0 -0.875 0
-0.125 -0.75 0
0 -0.75 0
-0.25 -0.75 0
-0.125 -0.75 0
-0.25 -0.625 0
-0.125 -0.625 0
-0.125 -0.75 0
0 -0.75 0
-0.125 -0.625 0
0 -0.625 0
-0.25 -0.625 0
-0.125 -0.625 0
-0.25 -0.5 0
-0.125 -0.5 0
-0.125 -0.625 0
0 -0.625 0
-0.125 -0.5 0
0 -0.5 0
-0.75 -0.5 0
-0.625 -0.5 0
-0.75 -0.375 0
-0.625 -0.375 0
-0.625 -0.5 0
-0.5 -0.5 0
-0.625 -0.375 0
-0.5 -0.375 0
-0.25 -0.5 0
-0.125 -0.5 0
-0.25 -0.375 0
-0.125 -0.375 0
-0.125 -0.5 0
0 -0.5 0
-0.125 -0.375 0
0 -0.375 0
-0.125 -0.375 0
0 -0.375 0
-0.125 -0.25 0
0 -0.25 0
0.75 -0.25 0
0.875 -0.25 0
0.75 -0.125 0
0.875 -0.125 0
0.875 -0.25 0
1 -0.25 0
0.875 -0.125 0
1 -0.125 0
0.75 -0.125 0
0.875 -0.125 0
0.75 0 0
0.875 0 0
0.875 -0.125 0
1 -0.125 0
0.875 0 0
1 0 0
-0.625 0.25 0
-0.5625 0.25 0
-0.625 0.3125 0
-0.5625 0.3125 0
-0.875 0.75 0
-0.8125 0.75 0
-0.875 0.8125 0
-0.8125 0.8125 0
-0.875 0.8125 0
-0.8125 0.8125 0
-0.875 0.875 0
-0.8125 0.875 0
-0.1875 0.125 0
-0.125 0.125 0
-0.1875 0.1875 0
-0.125 0.1875 0
-0.5 0.125 0
-0.4375 0.125 0
-0.5 0.1875 0
-0.4375 0.1875 0
-0.5 0.1875 0
-0.4375 0.1875 0
-0.5 0.25 0
-0.4375 0.25 0
-0.125 0.3125 0
-0.0625 0.3125 0
-0.125 0.375 0
-0.0625 0.375 0
-0.0625 0.3125 0
0 0.3125 0
-0.0625 0.375 0
0 0.375 0
-0.875 0.5 0
-0.8125 0.5 0
-0.875 0.5625 0
-0.8125 0.5625 0
-0.875 0.5625 0
-0.8125 0.5625 0
-0.875 0.625 0
-0.8125 0.625 0
-0.8125 0.5625 0
-0.75 0.5625 0
-0.8125 0.625 0
-0.75 0.625 0
-0.875 0.625 0
-0.8125 0.625 0
-0.875 0.6875 0
-0.8125 0.6875 0
-0.8125 0.625 0
-0.75 0.625 0
-0.8125 0.6875 0
-0.75 0.6875 0
-0.75 0.9375 0
-0.6875 0.9375 0
-0.75 1 0
-0.6875 1 0
-0.5625 0.0625 0
-0.5 0.0625 0
-0.5625 0.125 0
-0.5 0.125 0
-0.75 0.125 0
-0.6875 0.125 0
-0.75 0.1875 0
-0.6875 0.1875 0
-0.6875 0.125 0
-0.625 0.125 0
-0.6875 0.1875 0
-0.625 0.1875 0
-0.75 0.1875 0
-0.6875 0.1875 0
-0.75 0.25 0
-0.6875 0.25 0
-0.6875 0.1875 0
-0.625 0.1875 0
-0.6875 0.25 0
-0.625 0.25 0
-0.625 0.125 0
-0.5625 0.125 0
-0.625 0.1875 0
-0.5625 0.1875 0
-0.5625 0.125 0
-0.5 0.125 0
-0.5625 0.1875 0
-0.5 0.1875 0
-0.625 0.1875 0
-0.5625 0.1875 0
-0.625 0.25 0
-0.5625 0.25 0
-0.5625 0.1875 0
-0.5 0.1875 0
-0.5625 0.25 0
-0.5 0.25 0
-0.75 -0.25 0
-0.6875 -0.25 0
-0.75 -0.1875 0
-0.6875 -0.1875 0
-0.6875 -0.25 0
-0.625 -0.25 0
-0.6875 -0.1875 0
-0.625 -0.1875 0
-0.75 -0.1875 0
-0.6875 -0.1875 0
-0.75 -0.125 0
-0.6875 -0.125 0
-0.6875 -0.1875 0
-0.625 -0.1875 0
-0.6875 -0.125 0
-0.625 -0.125 0
-0.5 -0.25 0
-0.4375 -0.25 0
-0.5 -0.1875 0
-0.4375 -0.1875 0
-0.4375 -0.25 0
-0.375 -0.25 0
-0.4375 -0.1875 0
-0.375 -0.1875 0
-0.5 -0.1875 0
-0.4375 -0.1875 0
-0.5 -0.125 0
-0.4375 -0.125 0
-0.4375 -0.1875 0
-0.375 -0.1875 0
-0.4375 -0.125 0
-0.375 -0.125 0
-0.875 0.375 0
-0.8125 0.375 0
-0.875 0.4375 0
-0.8125 0.4375 0
-0.8125 0.375 0
-0.75 0.375 0
-0.8125 0.4375 0
-0.75 0.4375 0
-0.875 0.4375 0
-0.8125 0.4375 0
-0.875 0.5 0
-0.8125 0.5 0
-0.8125 0.4375 0
-0.75 0.4375 0
-0.8125 0.5 0
-0.75 0.5 0
-0.75 0.25 0
-0.6875 0.25 0
-0.75 0.3125 0
-0.6875 0.3125 0
-0.6875 0.25 0
-0.625 0.25 0
-0.6875 0.3125 0
-0.625 0.3125 0
-0.75 0.3125 0
-0.6875 0.3125 0
-0.75 0.375 0
-0.6875 0.375 0
-1 0.75 0
-0.9375 0.75 0
-1 0.8125 0
-0.9375 0.8125 0
-0.9375 0.75 0
-0.875 0.75 0
-0.9375 0.8125 0
-0.875 0.8125 0
-1 0.8125 0
-0.9375 0.8125 0
-1 0.875 0
-0.9375 0.875 0
-0.9375 0.8125 0
-0.875 0.8125 0
-0.9375 0.875 0
-0.875 0.875 0
-0.875 0.875 0
-0.8125 0.875 0
-0.875 0.9375 0
-0.8125 0.9375 0
-0.8125 0.875 0
-0.75 0.875 0
-0.8125 0.9375 0
-0.75 0.9375 0
-0.875 0.9375 0
-0.8125 0.9375 0
-0.875 1 0
-0.8125 1 0
-0.8125 0.9375 0
-0.75 0.9375 0
-0.8125 1 0
-0.75 1 0
-0.25 0 0
-0.1875 0 0
-0.25 0.0625 0
-0.1875 0.0625 0
-0.1875 0 0
-0.125 0 0
-0.1875 0.0625 0
-0.125 0.0625 0
-0.25 0.0625 0
-0.1875 0.0625 0
-0.25 0.125 0
-0.1875 0.125 0
-0.1875 0.0625 0
-0.125 0.0625 0
-0.1875 0.125 0
-0.125 0.125 0
-0.0625 0.375 0
0 0.375 0
-0.0625 0.4375 0
0 0.4375 0
-0.125 0 0
-0.0625 0 0
-0.125 0.0625 0
-0.0625 0.0625 0
-0.125 0.125 0
-0.0625 0.125 0
-0.125 0.1875 0
-0.0625 0.1875 0
-0.0625 0.125 0
0 0.125 0
-0.0625 0.1875 0
0 0.1875 0
-0.125 0.1875 0
-0.0625 0.1875 0
-0.125 0.25 0
-0.0625 0.25 0
-0.0625 0.1875 0
0 0.1875 0
-0.0625 0.25 0
0 0.25 0
-0.5 0 0
-0.4375 0 0
-0.5 0.0625 0
-0.4375 0.0625 0
-0.4375 0 0
-0.375 0 0
-0.4375 0.0625 0
-0.375 0.0625 0
-0.5 0.0625 0
-0.4375 0.0625 0
-0.5 0.125 0
-0.4375 0.125 0
-0.4375 0.0625 0
-0.375 0.0625 0
-0.4375 0.125 0
-0.375 0.125 0
-0.375 0 0
-0.3125 0 0
-0.375 0.0625 0
-0.3125 0.0625 0
-0.3125 0 0
-0.25 0 0
-0.3125 0.0625 0
-0.25 0.0625 0
-0.375 0.0625 0
-0.3125 0.0625 0
-0.375 0.125 0
-0.3125 0.125 0
-0.3125 0.0625 0
-0.25 0.0625 0
-0.3125 0.125 0
-0.25 0.125 0
-1 0.5 0
-0.9375 0.5 0
-1 0.5625 0
-0.9375 0.5625 0
-0.9375 0.5 0
-0.875 0.5 0
-0.9375 0.5625 0
-0.875 0.5625 0
-1 0.5625 0
-0.9375 0.5625 0
-1 0.625 0
-0.9375 0.625 0
-0.9375 0.5625 0
-0.875 0.5625 0
-0.9375 0.625 0
-0.875 0.625 0
-1 0.625 0
-0.9375 0.625 0
-1 0.6875 0
-0.9375 0.6875 0
-0.9375 0.625 0
-0.875 0.625 0
-0.9375 0.6875 0
-0.875 0.6875 0
-1 0.6875 0
-0.9375 0.6875 0
-1 0.75 0
-0.9375 0.75 0
-0.9375 0.6875 0
-0.875 0.6875 0
-0.9375 0.75 0
-0.875 0.75 0
-0.75 -0.0625 0
-0.6875 -0.0625 0
-0.75 0 0
-0.6875 0 0
-0.625 -0.125 0
-0.5625 -0.125 0
-0.625 -0.0625 0
-0.5625 -0.0625 0
-0.5625 -0.125 0
-0.5 -0.125 0
-0.5625 -0.0625 0
-0.5 -0.0625 0
-0.625 -0.0625 0
-0.5625 -0.0625 0
-0.625 0 0
-0.5625 0 0
-0.375 -0.25 0
-0.3125 -0.25 0
-0.375 -0.1875 0
-0.3125 -0.1875 0
-0.3125 -0.25 0
-0.25 -0.25 0
-0.3125 -0.1875 0
-0.25 -0.1875 0
-0.375 -0.1875 0
-0.3125 -0.1875 0
-0.375 -0.125 0
-0.3125 -0.125 0
-0.3125 -0.1875 0
-0.25 -0.1875 0
-0.3125 -0.125 0
-0.25 -0.125 0
0 -0.75 0
0.0625 -0.75 0
0 -0.6875 0
0.0625 -0.6875 0
0.0625 -0.75 0
0.125 -0.75 0
0.0625 -0.6875 0
0.125 -0.6875 0
0 -0.6875 0
0.0625 -0.6875 0
0 -0.625 0
0.0625 -0.625 0
0.0625 -0.6875 0
0.125 -0.6875 0
0.0625 -0.625 0
0.125 -0.625 0
-0.625 -0.25 0
-0.5625 -0.25 0
-0.625 -0.1875 0
-0.5625 -0.1875 0
-0.5625 -0.25 0
-0.5 -0.25 0
-0.5625 -0.1875 0
-0.5 -0.1875 0
-0.625 -0.1875 0
-0.5625 -0.1875 0
-0.625 -0.125 0
-0.5625 -0.125 0
-0.875 -0.125 0
-0.8125 -0.125 0
-0.875 -0.0625 0
-0.8125 -0.0625 0
-0.8125 -0.125 0
-0.75 -0.125 0
-0.8125 -0.0625 0
-0.75 -0.0625 0
-0.875 -0.0625 0
-0.8125 -0.0625 0
-0.875 0 0
-0.8125 0 0
-0.8125 -0.0625 0
-0.75 -0.0625 0
-0.8125 0 0
-0.75 0 0
0 -0.625 0
0.0625 -0.625 0
0 -0.5625 0
0.0625 -0.5625 0
0.0625 -0.625 0
0.125 -0.625 0
0.0625 -0.5625 0
0.125 -0.5625 0
0 -0.5625 0
0.0625 -0.5625 0
0 -0.5 0
0.0625 -0.5 0
0.0625 -0.5625 0
0.125 -0.5625 0
0.0625 -0.5 0
0.125 -0.5 0
0 -0.5 0
0.0625 -0.5 0
0 -0.4375 0
0.0625 -0.4375 0
0.0625 -0.5 0
0.125 -0.5 0
0.0625 -0.4375 0
0.125 -0.4375 0
0 -0.4375 0
0.0625 -0.4375 0
0 -0.375 0
[...]
  <PointData Scalars="scalars">
    <DataArray type="Float32" Name="U" format="ascii">
0 0 0 4.32879e-05 0 0 4.32879e-05 0.000113066 0 4.32879e-05 0 9.40927e-05 4.32879e-05 0.000113066 9.40927e-05 0.000216789 0.000113066 0.000224844 0.000216789 0.000373161 0 0 5.65329e-05 8.63912e-05 0 0 8.63912e-05 0.000119019 5.65329e-05 8.63912e-05 0.000113066 0.000168955 8.63912e-05 0.000119019 0.000168955 0.000224844 0 0.000115023 0 0.00019708 0.000115023 0.000229184 0.00019708 0.000393277 0 0.00019708 0 0.00033587 0.000421375 0.000464339 0.000556996 0.000611086 0.000556996 0.000611086 0.000615652 0.00066895 0.000615652 0.00066895 0.000590688 0.000628195 0.000590688 0.000628195 0.000480114 0.000490952 0.00048349 0.000480114 0.000362657 0.000282005 0.000480114 0.000490952 0.000282005 0.000270011 0.000282005 0.000270011 0 0 0 0.00033587 0 0.000538367 0.00033587 0.000664025 0.000538367 0.00106123 0 0.000538367 0 0.000788938 0.000216789 0.000294975 0.000297766 0.00036926 0.000294975 0.000373161 0.00036926 0.000431699 0 0 0.000192476 0.000226328 0 0 0.000226328 0.00025032 0.000226328 0.00025032 0.000421375 0.000464339 0 0 0.00025032 0.00025697 0 0 0.00025697 0.000244772 0 0 0.000244772 0.000209568 0 0 0.000209568 0.000153693 0 0 0.000153693 8.07309e-05 0 0 8.07309e-05 0 0.000153693 8.07309e-05 0.000284439 0.000150969 8.07309e-05 0 0.000150969 0 0.000150969 0 0.000198733 0 0.000198733 0 0.000216411 0 0 0.000788938 0 0.00104301 0.000788938 0.00156002 0.00104301 0.00205642 0 0.00104301 0 0.00121482 0 0.000570999 0 0 0.000270011 0.000266214 0 0 0.000266214 0.000250624 0 0 0.000216411 0 0.000200179 0 0.000200179 0 0.000152934 0 0.000250624 0.000213582 0 0 0.000213582 0.000156382 0 0 0 4.70464e-05 0 6.96032e-05 4.70464e-05 9.40927e-05 6.96032e-05 0.000142709 0 6.96032e-05 0 0.000115023 6.96032e-05 0.000142709 0.000115023 0.000229184 0 0 0.000119019 0.000155086 0 0 0.000155086 0.000192476 0.000119019 0.000155086 0.000224844 0.000289903 0.000155086 0.000192476 0.000289903 0.00035978 0.000224844 0.000289903 0.000299003 0.00039185 0.000289903 0.00035978 0.00039185 0.00047949 0.000299003 0.00039185 0.000373161 0.000454625 0.00039185 0.00047949 0.000454625 0.000539852 9.40927e-05 0.000155441 0.000142709 0.000220815 0.000155441 0.000216789 0.000220815 0.000297766 0.000373161 0.000454625 0.000431699 0.00048595 0.000454625 0.000539852 0.00048595 0.000539976 0.00048595 0.000539976 0.000503434 0.00048349 0.000288305 0.000152934 0.000156382 8.20725e-05 0.000152934 0 8.20725e-05 0 0.000156382 8.20725e-05 0 0 8.20725e-05 0 0 0 0.00223564 0.00249979 0.00260669 0.0029126 0.001004 0.00150083 0.000810355 0.00121497 0.000810355 0.00121497 0.000570999 0.000851483 0.00126715 0.000897176 0.00153383 0.00108218 0.00183032 0.00189008 0.00224243 0.00231003 0.00224243 0.00231003 0.00268625 0.00276854 0.00150179 0.000775709 0.00170698 0.000882042 0.000775709 0 0.000882042 0 0.00121482 0.00181174 0.00124127 0.0018577 0.00124127 0.0018577 0.00121921 0.0018254 0.0018577 0.00245811 0.0018254 0.00242112 0.00121921 0.0018254 0.00114135 0.00170548 0.0018254 0.00242112 0.00170548 0.00226494 0.000583478 0.000718127 0 0 0.00136335 0.00146531 0.0017042 0.00183032 0.00106123 0.00130824 0.00130127 0.00160105 0.00130824 0.00152799 0.00160105 0.00186831 0.00130127 0.00160105 0.00156002 0.00191422 0.00160105 0.00186831 0.00191422 0.00223564 0.00152799 0.0017042 0.00186831 0.00208847 0.0017042 0.00183032 0.00208847 0.00224243 0.00186831 0.00208847 0.00223564 0.00249979 0.00208847 0.00224243 0.00249979 0.00268625 0.000229184 0.000291635 0.00031123 0.000375546 0.000291635 0.000345466 0.000375546 0.00044257 0.00031123 0.000375546 0.000393277 0.000491191 0.000375546 0.00044257 0.000491191 0.000573886 0.000439384 0.000476828 0.000551664 0.000587468 0.000476828 0.00050105 0.000587468 0.000607371 0.000551664 0.000587468 0.000703669 0.000743246 0.000587468 0.000607371 0.000743246 0.000753857 0.00104301 0.00154972 0.00112891 0.00170457 0.00154972 0.00205642 0.00170457 0.00225701 0.00112891 0.00170457 0.00121482 0.00181174 0.00170457 0.00225701 0.00181174 0.00239728 0.00156002 0.00191422 0.00180822 0.00223144 0.00191422 0.00223564 0.00223144 0.00260669 0.00180822 0.00223144 0.00205642 0.00252511 0 0.000501705 0 0.000405269 0.000501705 0.001004 0.000405269 0.000810355 0 0.000405269 0 0.0002855 0.000405269 0.000810355 0.0002855 0.000570999 0.000570999 0.000851483 0.0002855 0.000438765 0.000851483 0.00112795 0.000438765 0.000583478 0.0002855 0.000438765 0 0 0.000438765 0.000583478 0 0 0.00102711 0.000858233 0.0012655 0.0010399 0.000858233 0.000643528 0.0010399 0.000748355 0.0012655 0.0010399 0.00156104 0.00126715 0.0010399 0.000748355 0.00126715 0.000897176 0.000882042 0 0.000970009 0 0.000643528 0.000377902 0.000748355 0.000399296 0.000897176 0.000468599 0.00108218 0.000559378 0.000468599 0 0.000559378 0 0.00108218 0.000559378 0.00128473 0.00066608 0.000559378 0 0.00066608 0 0.00115466 0.00120014 0.00146531 0.00151559 0.00120014 0.00119604 0.00151559 0.00150312 0.00146531 0.00151559 0.00183032 0.00189008 0.00151559 0.00150312 0.00189008 0.00187271 0.00119604 0.00113875 0.00150312 0.00142119 0.00113875 0.00102711 0.00142119 0.0012655 0.00150312 0.00142119 0.00187271 0.00176197 0.00142119 0.0012655 0.00176197 0.00156104 0 0.000607408 0 0.000621108 0.000607408 0.00121482 0.000621108 0.00124127 0 0.000621108 0 0.000609705 0.000621108 0.00124127 0.000609705 0.00121921 0 0.000609705 0 0.000570307 0.000609705 0.00121921 0.000570307 0.00114135 0 0.000570307 0 0.000501705 0.000570307 0.00114135 0.000501705 0.001004 0.000513942 0.000635504 0.000664025 0.000820346 0.000573886 0.000646119 0.000742254 0.000834169 0.000646119 0.000703669 0.000834169 0.00090256 0.000742254 0.000834169 0.000959071 0.00107176 0.00050105 0.000516447 0.000607371 0.000609144 0.000516447 0.000520854 0.000609144 0.000593161 0.000607371 0.000609144 0.000753857 0.00073995 0.000609144 0.000593161 0.00073995 0.000695826 0.00035978 0.000387905 0.000419635 0.00046132 0.000387905 0.000421375 0.00046132 0.000489185 0.000419635 0.00046132 0.00047949 0.00051481 0.00046132 0.000489185 0.00051481 0.000556996 0.000345466 0.000394686 0.00044257 0.000503269 0.000394686 0.000439384 0.000503269 0.000551664 0.00044257 0.000503269 0.000573886 0.000646119 0.00019708 0.000295178 0.000266475 0.000388355 0.000295178 0.000393277 0.000388355 0.000513942 0.000266475 0.000388355 0.00033587 0.000499948 0.000388355 0.000513942 0.000499948 0.000664025 0.00047949 0.00051481 0.000509671 0.000555871 0.00051481 0.000556996 0.000555871 0.000586324 0.000509671 0.000555871 0.000539852 0.000573837 0.000555871 0.000586324 0.000573837 0.000615652 0.000539852 0.000573837 0.000539914 0.000578589 0.000573837 0.000615652 0.000578589 0.00060317 0.000539914 0.000578589 0.000539976 0.000560099 0.000578589 0.00060317 0.000560099 0.000590688 0.000539976 0.000560099 0.000511733 0.000529055 0.000560099 0.000590688 0.000529055 0.000535401 0.000511733 0.000529055 0.00048349 0.000481802 0.000529055 0.000535401 0.000481802 0.000480114 0.000362657 0.000322331 0.000258917 0.000176997 0.000322331 0.000282005 0.000176997 0.000141003 0.000176997 0.000141003 0 0 0.000192476 0.000209402 0.000276128 0.000304762 0.000209402 0.000226328 0.000304762 0.000323851 0.000276128 0.000304762 0.00035978 0.000387905 0.000304762 0.000323851 0.000387905 0.000421375 0.000538367 0.000799796 0.000663653 0.000984983 0.000799796 0.00106123 0.000984983 0.00130127 0.000663653 0.000984983 0.000788938 0.00117448 0.000984983 0.00130127 0.00117448 0.00156002 0.000626007 0.000540487 0.000721391 0.000577007 0.000721391 0.000577007 0.000858233 0.000643528 0.000540487 0.000444098 0.000577007 0.000411763 0.000577007 0.000411763 0.000643528 0.000377902 0.0010539 0 0.000989184 0 0.000989184 0 0.000872455 0 0.000664025 0.000820346 0.000862626 0.00104425 0.000862626 0.00104425 0.00106123 0.00130824 0.00025032 0.000253645 0.00035733 0.000370238 0.000253645 0.00025697 0.000370238 0.000371795 0.00035733 0.000370238 0.000464339 0.000470727 0.000370238 0.000371795 0.000470727 0.000474054 0.00025697 0.000250871 0.000371795 0.000367138 0.000250871 0.000244772 0.000367138 0.000353583 0.000371795 0.000367138 0.000474054 0.000467504 0.000367138 0.000353583 0.000467504 0.000450835 0.000464339 0.000470727 0.000537713 0.000556521 0.000470727 0.000474054 0.000556521 0.000558723 0.000537713 0.000556521 0.000611086 0.000618515 0.000556521 0.000558723 0.000618515 0.000622278 0.000297766 0.000333513 0.000356589 0.00039459 0.000333513 0.00036926 0.00039459 0.0004239 0.00104891 0.000986595 0 0 0.000986595 0.000871257 0 0 0.000872455 0 0.000705758 0 0.000705758 0 0.000496531 0 0.000871257 0.000705317 0 0 0.000705317 0.000496436 0 0 0.000496531 0 0.000256794 0 0.000496436 0.000256794 0 0 0.000256794 0 0 0 0.00036926 0.00040048 0.0004239 0.000449393 0.00040048 0.000431699 0.000449393 0.000468778 0.0004239 0.000449393 0.00050105 0.000516447 0.000449393 0.000468778 0.000516447 0.000520854 0.000474054 0.000467504 0.000558723 0.000551203 0.000467504 0.000450835 0.000551203 0.000531409 0.000558723 0.000551203 0.000622278 0.000613413 0.000551203 0.000531409 0.000613413 0.000591342 0.000611086 0.000618515 0.000640018 0.000661117 0.000618515 0.000622278 0.000661117 0.000662853 0.000640018 0.000661117 0.00066895 0.000675096 0.000661117 0.000662853 0.000675096 0.000678009 0.000622278 0.000613413 0.000662853 0.000653385 0.000613413 0.000591342 0.000653385 0.000629667 0.000662853 0.000653385 0.000678009 0.000667599 0.000653385 0.000629667 0.000667599 0.000643149 0.000244772 0.00022717 0.000353583 0.000332887 0.00022717 0.000209568 0.000332887 0.000302927 0.000353583 0.000332887 0.000450835 0.000423976 0.000332887 0.000302927 0.000423976 0.000386554 0.000209568 0.00018163 0.000302927 0.000266125 0.00018163 0.000153693 0.000266125 0.000219066 0.000302927 0.000266125 0.000386554 0.000339153 0.000266125 0.000219066 0.000339153 0.000284439 0.000220815 0.00025929 0.000272841 0.000316666 0.00025929 0.000297766 0.000316666 0.000356589 0.000272841 0.000316666 0.000345466 0.000394686 0.000316666 0.000356589 0.000394686 0.000439384 0.000450835 0.000423976 0.000531409 0.000499939 0.000423976 0.000386554 0.000499939 0.000455809 0.000531409 0.000499939 0.000591342 0.000556318 0.000499939 0.000455809 0.000556318 0.000507327 0.000386554 0.000339153 0.000455809 0.000400673 0.000339153 0.000284439 0.000400673 0.000333984 0.000455809 0.000400673 0.000507327 0.000445838 0.000400673 0.000333984 0.000445838 0.000372206 0.000591342 0.000556318 0.000629667 0.00059229 0.000556318 0.000507327 0.00059229 0.000540146 0.000629667 0.00059229 0.000643149 0.00060484 0.00059229 0.000540146 0.00060484 0.000551499 0.000507327 0.000445838 0.000540146 0.000474762 0.000445838 0.000372206 0.000474762 0.000396274 0.000540146 0.000474762 0.000551499 0.000484721 0.000474762 0.000396274 0.000484721 0.000404731 0.000284439 0.000217704 0.000333984 0.000259169 0.000217704 0.000150969 0.000259169 0.000174851 0.000333984 0.000259169 0.000372206 0.000288302 0.000259169 0.000174851 0.000288302 0.000198733 0.000372206 0.000288302 0.000396274 0.000307692 0.000288302 0.000198733 0.000307692 0.000207572 0.000396274 0.000307692 0.000404731 0.000313631 0.000307692 0.000207572 0.000313631 0.000216411 0.00066895 0.000675096 0.000648573 0.000667615 0.000675096 0.000678009 0.000667615 0.000667778 0.000648573 0.000667615 0.000628195 0.000630572 0.000667615 0.000667778 0.000630572 0.000631466 0.000678009 0.000667599 0.000667778 0.000657288 0.000667599 0.000643149 0.000657288 0.000632859 0.000667778 0.000657288 0.000631466 0.000620643 0.000657288 0.000632859 0.000620643 0.000597242 0.000628195 0.000630572 0.000559574 0.000572844 0.000630572 0.000631466 0.000572844 0.000570892 0.000559574 0.000572844 0.000490952 0.000488605 0.000572844 0.000570892 0.000488605 0.000487452 0.000520854 0.000515508 0.000593161 0.000561907 0.000515508 0.000503434 0.000561907 0.000517881 0.000561907 0.000517881 0.000626007 0.000540487 0.000631466 0.000620643 0.000570892 0.000560745 0.000620643 0.000597242 0.000560745 0.000539159 0.000570892 0.000560745 0.000487452 0.000477905 0.000560745 0.000539159 0.000477905 0.000459236 0.000503434 0.000493462 0.000517881 0.000471708 0.000493462 0.00048349 0.000471708 0.000423073 0.000517881 0.000471708 0.000540487 0.000444098 0.000471708 0.000423073 0.000444098 0.000362657 0.000490952 0.000488605 0.000380481 0.000387412 0.000488605 0.000487452 0.000387412 0.000384441 0.000380481 0.000387412 0.000270011 0.000268113 0.000387412 0.000384441 0.000268113 0.000266214 0.000487452 0.000477905 0.000384441 0.000376786 0.000477905 0.000459236 0.000376786 0.000361384 0.000384441 0.000376786 0.000266214 0.000258419 0.000376786 0.000361384 0.000258419 0.000250624 0.000643149 0.00060484 0.000632859 0.000594951 0.00060484 0.000551499 0.000594951 0.000542381 0.000632859 0.000594951 0.000597242 0.000561224 0.000594951 0.000542381 0.000561224 0.00051144 0.000551499 0.000484721 0.000542381 0.000476618 0.000484721 0.000404731 0.000476618 0.000397766 0.000542381 0.000476618 0.00051144 0.000449248 0.000476618 0.000397766 0.000449248 0.00037495 0.000597242 0.000561224 0.000539159 0.000506365 0.000561224 0.00051144 0.000506365 0.00046118 0.000539159 0.000506365 0.000459236 0.000430914 0.000506365 0.00046118 0.000430914 0.000392336 0.00051144 0.000449248 0.00046118 0.000405123 0.000449248 0.00037495 0.000405123 0.000337554 0.00046118 0.000405123 0.000392336 0.000343896 0.000405123 0.000337554 0.000343896 0.000288305 0.000404731 0.000313631 0.000397766 0.000308824 0.000313631 0.000216411 0.000308824 0.000208295 0.000397766 0.000308824 0.00037495 0.000290366 0.000308824 0.000208295 0.000290366 0.000200179 0.00037495 0.000290366 0.000337554 0.00026187 0.000290366 0.000200179 0.00026187 0.000176556 0.000337554 0.00026187 0.000288305 0.00022062 0.00026187 0.000176556 0.00022062 0.000152934 0.000459236 0.000430914 0.000361384 0.000339292 0.000430914 0.000392336 0.000339292 0.000308255 0.000361384 0.000339292 0.000250624 0.000232103 0.000339292 0.000308255 0.000232103 0.000213582 0.000392336 0.000343896 0.000308255 0.00027049 0.000343896 0.000288305 0.00027049 0.000222344 0.000308255 0.00027049 0.000213582 0.000184982 0.00027049 0.000222344 0.000184982 0.000156382 0.000142709 0.000181762 0.000185946 0.000227537 0.000181762 0.000220815 0.000227537 0.000272841 0.000185946 0.000227537 0.000229184 0.000291635 0.000227537 0.000272841 0.000291635 0.000345466 0.000431699 0.000458825 0.000468778 0.000483511 0.000458825 0.00048595 0.000483511 0.000494692 0.000468778 0.000483511 0.000520854 0.000515508 0.000483511 0.000494692 0.000515508 0.000503434 0.00249979 0.00259302 0.0027062 0.00282131 0.00259302 0.00268625 0.00282131 0.00290082 0.0027062 0.00282131 0.0029126 0.00303645 0.00282131 0.00290082 0.00303645 0.00312571 0.00260669 0.00275965 0.00277986 0.00296154 0.00275965 0.0029126 0.00296154 0.00311038 0.00277986 0.00296154 0.00294874 0.00313967 0.00296154 0.00311038 0.00313967 0.00329979 0.0029126 0.00303645 0.00311038 0.00324731 0.00303645 0.00312571 0.00324731 0.00334336 0.00311038 0.00324731 0.00329979 0.00344621 0.00324731 0.00334336 0.00344621 0.00354834 0.0036674 0.00366413 0.00386448 0.00386518 0.00366413 0.00362123 0.00386518 0.00381557 0.00205642 0.00229077 0.00215672 0.00241596 0.00229077 0.00252511 0.00241596 0.0026588 0.00215672 0.00241596 0.00225701 0.00251743 0.00241596 0.0026588 0.00251743 0.00277357 0.00418677 0.00419016 0.0043034 0.00430602 0.00419016 0.00413797 0.00430602 0.0042543 0.00252511 0.00274571 0.0026588 0.00289451 0.00274571 0.00294874 0.00289451 0.00310821 0.0026588 0.00289451 0.00277357 0.00301903 0.00289451 0.00310821 0.00301903 0.00324295 0.00153179 0.0010336 0.00156173 0.00105649 0.00205889 0.00157604 0.00202966 0.00155601 0.00157604 0.00106194 0.00155601 0.0010539 0.00106369 0.000537919 0.00106194 0.000536431 0.000537919 0 0.000536431 0 0.00106194 0.000536431 0.0010539 0.000526948 0.000536431 0 0.000526948 0 0.00187687 0.00143738 0.00195061 0.00148983 0.00143738 0.000970009 0.00148983 0.00100698 0.00148983 0.00100698 0.00153179 0.0010336 0.00329979 0.00344621 0.00348094 0.00362717 0.00362717 0.00374311 0.00379032 0.00391177 0.00155601 0.0010539 0.00151618 0.00102154 0.00151618 0.00102154 0.00145893 0.000989184 0.00324295 0.00345582 0.00336704 0.00357964 0.00357964 0.003769 0.00367751 0.00387244 0.00190634 0.00145893 0.00180749 0.00138411 0.00145893 0.000989184 0.00138411 0.000930819 0.00180749 0.00138411 0.00168188 0.00128595 0.00138411 0.000930819 0.00128595 0.000872455 0.00379032 0.00391177 0.00393116 0.00405555 0.003769 0.00393116 0.00387244 0.00403807 0.00393116 0.00405555 0.00403807 0.00416506 0.00225701 0.00251743 0.00232714 0.0026134 0.00251743 0.00277357 0.0026134 0.00287734 0.00232714 0.0026134 0.00239728 0.0026768 0.0026134 0.00287734 0.0026768 0.00294911 0.00277357 0.00301903 0.00287734 0.00313232 0.00301903 0.00324295 0.00313232 0.00336704 0.00287734 0.00313232 0.00294911 0.00321176 0.00313232 0.00336704 0.00321176 0.00345171 0.00156104 0.00141409 0.00171566 0.00156878 0.00141409 0.00126715 0.00156878 0.00140049 0.00171566 0.00156878 0.00189159 0.00172838 0.00156878 0.00140049 0.00172838 0.00153383 0.00294874 0.00313967 0.00310821 0.00330958 0.00313967 0.00329979 0.00330958 0.00348094 0.00310821 0.00330958 0.00324295 0.00345582 0.00330958 0.00348094 0.00345582 0.00363184 0.00151046 0.0015451 0.00101915 0.00104526 0.00204639 0.00202039 0.00156624 0.00154872 0.00156624 0.00154872 0.00105528 0.00104891 0.00105493 0.00105528 0.000533456 0.000533061 0.00105528 0.00104891 0.000533061 0.000524457 0.000533456 0.000533061 0 0 0.000533061 0.000524457 0 0 0.00154872 0.00151088 0.00104891 0.00101775 0.00151088 0.00145513 0.00101775 0.000986595 0.00190163 0.00180435 0.00145513 0.00138151 0.00180435 0.00167988 0.00138151 0.00128422 0.00145513 0.00138151 0.000986595 0.000928926 0.00138151 0.00128422 0.000928926 0.000871257 0.00189008 0.00188139 0.00210006 0.00209376 0.00188139 0.00187271 0.00209376 0.00206604 0.00210006 0.00209376 0.00231003 0.00231304 0.00209376 0.00206604 0.00231304 0.00228274 0.00150083 0.00174321 0.0013579 0.0015923 0.00174321 0.0019867 0.0015923 0.0018144 0.0013579 0.0015923 0.00121497 0.00140481 0.0015923 0.0018144 0.00140481 0.00160223 0.00354615 0.00377432 0.00353568 0.00376721 0.00353568 0.00376721 0.00348902 0.00371326 0.00168188 0.00128595 0.00153177 0.0011734 0.00128595 0.000872455 0.0011734 0.000789107 0.00153177 0.0011734 0.00136083 0.00104038 0.0011734 0.000789107 0.00104038 0.000705758 0.00231003 0.00231304 0.00253929 0.00253545 0.00231304 0.00228274 0.00253545 0.00250257 0.00253929 0.00253545 0.00276854 0.00276675 0.00253545 0.00250257 0.00276675 0.00273246 0.00136083 0.00104038 0.00116445 0.000894415 0.00104038 0.000705758 0.000894415 0.000601145 0.000894415 0.000601145 0.000731945 0.000496531 0.00187271 0.00181734 0.00206604 0.00201968 0.00181734 0.00176197 0.00201968 0.00194154 0.00206604 0.00201968 0.00228274 0.00222898 0.00201968 0.00194154 0.00222898 0.0021431 0.00167988 0.0015306 0.00128422 0.00117235 0.0015306 0.00136024 0.00117235 0.00103978 0.00128422 0.00117235 0.000871257 0.000788287 0.00117235 0.00103978 0.000788287 0.000705317 0.00136024 0.00116423 0.00103978 0.000894134 0.00103978 0.000894134 0.000705317 0.000600876 0.000894134 0.000731844 0.000600876 0.000496436 0.00176197 0.0016615 0.00194154 0.00184469 0.0016615 0.00156104 0.00184469 0.00171566 0.00194154 0.00184469 0.0021431 0.00203358 0.00184469 0.00171566 0.00203358 0.00189159 0.00121497 0.00140481 0.00103322 0.00121164 0.00140481 0.00160223 0.00121164 0.00137956 0.00103322 0.00121164 0.000851483 0.000989717 0.00121164 0.00137956 0.000989717 0.00112795 0.000954613 0.000731945 0.000731844 0.000560526 0.000731945 0.000496531 0.000560526 0.000376663 0.000731844 0.000560526 0.000496436 0.000376615 0.000560526 0.000376663 0.000376615 0.000256794 0.00153383 0.001308 0.00167239 0.00144199 0.001308 0.00108218 0.00144199 0.00118346 0.00167239 0.00144199 0.00182495 0.00157314 0.00144199 0.00118346 0.00157314 0.00128473 0.