# vtk DataFile Version 3.0
#This file was generated by the deal.II library on 2021/4/23 at 0:45:46
ASCII
DATASET UNSTRUCTURED_GRID

FIELD FieldData 2
CYCLE 1 1 int
171
TIME 1 1 double
0.342
POINTS 6864 double
-1 -1 0
-0.75 -1 0
-1 -0.75 0
-0.75 -0.75 0
-0.75 -1 0
-0.5 -1 0
-0.75 -0.75 0
-0.5 -0.75 0
-1 -0.75 0
-0.75 -0.75 0
-1 -0.5 0
-0.75 -0.5 0
-0.75 -0.75 0
-0.5 -0.75 0
-0.75 -0.5 0
-0.5 -0.5 0
-0.5 -1 0
-0.25 -1 0
-0.5 -0.75 0
-0.25 -0.75 0
-1 -0.5 0
-0.75 -0.5 0
-1 -0.25 0
-0.75 -0.25 0
-0.75 -0.5 0
-0.5 -0.5 0
-0.75 -0.25 0
-0.5 -0.25 0
-1 -0.25 0
-0.75 -0.25 0
-1 0 0
-0.75 0 0
-0.5 -0.5 0
-0.25 -0.5 0
-0.5 -0.25 0
-0.25 -0.25 0
0.25 -1 0
0.5 -1 0
0.25 -0.75 0
0.5 -0.75 0
0.5 -1 0
0.75 -1 0
0.5 -0.75 0
0.75 -0.75 0
0.75 -1 0
1 -1 0
0.75 -0.75 0
1 -0.75 0
0.75 -0.25 0
1 -0.25 0
0.75 0 0
1 0 0
-1 0 0
-0.75 0 0
-1 0.25 0
-0.75 0.25 0
-0.75 -0.25 0
-0.625 -0.25 0
-0.75 -0.125 0
-0.625 -0.125 0
-0.625 -0.25 0
-0.5 -0.25 0
-0.625 -0.125 0
-0.5 -0.125 0
-0.75 -0.125 0
-0.625 -0.125 0
-0.75 0 0
-0.625 0 0
-0.625 -0.125 0
-0.5 -0.125 0
-0.625 0 0
-0.5 0 0
-0.5 -0.25 0
-0.375 -0.25 0
-0.5 -0.125 0
-0.375 -0.125 0
-0.375 -0.25 0
-0.25 -0.25 0
-0.375 -0.125 0
-0.25 -0.125 0
0 -0.75 0
0.125 -0.75 0
0 -0.625 0
0.125 -0.625 0
0.125 -0.75 0
0.25 -0.75 0
0.125 -0.625 0
0.25 -0.625 0
0.125 -0.625 0
0.25 -0.625 0
0.125 -0.5 0
0.25 -0.5 0
0.125 -0.5 0
0.25 -0.5 0
0.125 -0.375 0
0.25 -0.375 0
0 -0.375 0
0.125 -0.375 0
0 -0.25 0
0.125 -0.25 0
0.125 -0.375 0
0.25 -0.375 0
0.125 -0.25 0
0.25 -0.25 0
-0.25 -1 0
-0.125 -1 0
-0.25 -0.875 0
-0.125 -0.875 0
-0.125 -1 0
0 -1 0
-0.125 -0.875 0
0 -0.875 0
-0.25 -0.875 0
-0.125 -0.875 0
-0.25 -0.75 0
-0.125 -0.75 0
-0.125 -0.875 0
0 -0.875 0
-0.125 -0.75 0
0 -0.75 0
-0.5 -0.75 0
-0.375 -0.75 0
-0.5 -0.625 0
-0.375 -0.625 0
-0.375 -0.75 0
-0.25 -0.75 0
-0.375 -0.625 0
-0.25 -0.625 0
-0.5 -0.625 0
-0.375 -0.625 0
-0.5 -0.5 0
-0.375 -0.5 0
-0.375 -0.625 0
-0.25 -0.625 0
-0.375 -0.5 0
-0.25 -0.5 0
-0.25 -0.75 0
-0.125 -0.75 0
-0.25 -0.625 0
-0.125 -0.625 0
-0.125 -0.75 0
0 -0.75 0
-0.125 -0.625 0
0 -0.625 0
-0.25 -0.625 0
-0.125 -0.625 0
-0.25 -0.5 0
-0.125 -0.5 0
-0.125 -0.625 0
0 -0.625 0
-0.125 -0.5 0
0 -0.5 0
-0.25 -0.5 0
-0.125 -0.5 0
-0.25 -0.375 0
-0.125 -0.375 0
-0.125 -0.5 0
0 -0.5 0
-0.125 -0.375 0
0 -0.375 0
-0.25 -0.375 0
-0.125 -0.375 0
-0.25 -0.25 0
-0.125 -0.25 0
-0.125 -0.375 0
0 -0.375 0
-0.125 -0.25 0
0 -0.25 0
-0.75 0 0
-0.625 0 0
-0.75 0.125 0
-0.625 0.125 0
-0.75 0.125 0
-0.625 0.125 0
-0.75 0.25 0
-0.625 0.25 0
0 -1 0
0.125 -1 0
0 -0.875 0
0.125 -0.875 0
0.125 -1 0
0.25 -1 0
0.125 -0.875 0
0.25 -0.875 0
0 -0.875 0
0.125 -0.875 0
0 -0.75 0
0.125 -0.75 0
0.125 -0.875 0
0.25 -0.875 0
0.125 -0.75 0
0.25 -0.75 0
-0.375 0 0
-0.25 0 0
-0.375 0.125 0
-0.25 0.125 0
0.25 -0.75 0
0.375 -0.75 0
0.25 -0.625 0
0.375 -0.625 0
0.375 -0.75 0
0.5 -0.75 0
0.375 -0.625 0
0.5 -0.625 0
0.25 -0.625 0
0.375 -0.625 0
0.25 -0.5 0
0.375 -0.5 0
0.375 -0.625 0
0.5 -0.625 0
0.375 -0.5 0
0.5 -0.5 0
-0.25 -0.25 0
-0.125 -0.25 0
-0.25 -0.125 0
-0.125 -0.125 0
-0.125 -0.25 0
0 -0.25 0
-0.125 -0.125 0
0 -0.125 0
-1 0.25 0
-0.875 0.25 0
-1 0.375 0
-0.875 0.375 0
-0.875 0.25 0
-0.75 0.25 0
-0.875 0.375 0
-0.75 0.375 0
-1 0.375 0
-0.875 0.375 0
-1 0.5 0
-0.875 0.5 0
0.5 -0.75 0
0.625 -0.75 0
0.5 -0.625 0
0.625 -0.625 0
0.625 -0.75 0
0.75 -0.75 0
0.625 -0.625 0
0.75 -0.625 0
0.75 -0.75 0
0.875 -0.75 0
0.75 -0.625 0
0.875 -0.625 0
0.875 -0.75 0
1 -0.75 0
0.875 -0.625 0
1 -0.625 0
0.875 -0.625 0
1 -0.625 0
0.875 -0.5 0
1 -0.5 0
0.25 -0.5 0
0.375 -0.5 0
0.25 -0.375 0
0.375 -0.375 0
0.25 -0.375 0
0.375 -0.375 0
0.25 -0.25 0
0.375 -0.25 0
-0.25 0 0
-0.125 0 0
-0.25 0.125 0
-0.125 0.125 0
-1 0.625 0
-0.875 0.625 0
-1 0.75 0
-0.875 0.75 0
0.125 -0.25 0
0.25 -0.25 0
0.125 -0.125 0
0.25 -0.125 0
0.125 -0.125 0
0.25 -0.125 0
0.125 0 0
0.25 0 0
0.25 -0.25 0
0.375 -0.25 0
0.25 -0.125 0
0.375 -0.125 0
0.25 -0.125 0
0.375 -0.125 0
0.25 0 0
0.375 0 0
0.375 -0.125 0
0.5 -0.125 0
0.375 0 0
0.5 0 0
0.875 -0.5 0
1 -0.5 0
0.875 -0.375 0
1 -0.375 0
0.75 -0.375 0
0.875 -0.375 0
0.75 -0.25 0
0.875 -0.25 0
0.875 -0.375 0
1 -0.375 0
0.875 -0.25 0
1 -0.25 0
0.625 -0.25 0
0.75 -0.25 0
0.625 -0.125 0
0.75 -0.125 0
0.5 -0.125 0
0.625 -0.125 0
0.5 0 0
0.625 0 0
0.625 -0.125 0
0.75 -0.125 0
0.625 0 0
0.75 0 0
-1 0.875 0
-0.875 0.875 0
-1 1 0
-0.875 1 0
-0.5625 0.25 0
-0.5 0.25 0
-0.5625 0.3125 0
-0.5 0.3125 0
-0.625 0.3125 0
-0.5625 0.3125 0
-0.625 0.375 0
-0.5625 0.375 0
-0.5625 0.3125 0
-0.5 0.3125 0
-0.5625 0.375 0
-0.5 0.375 0
-0.6875 0.375 0
-0.625 0.375 0
-0.6875 0.4375 0
-0.625 0.4375 0
-0.75 0.4375 0
-0.6875 0.4375 0
-0.75 0.5 0
-0.6875 0.5 0
-0.6875 0.4375 0
-0.625 0.4375 0
-0.6875 0.5 0
-0.625 0.5 0
-0.625 0.375 0
-0.5625 0.375 0
-0.625 0.4375 0
-0.5625 0.4375 0
-0.5625 0.375 0
-0.5 0.375 0
-0.5625 0.4375 0
-0.5 0.4375 0
-0.625 0.4375 0
-0.5625 0.4375 0
-0.625 0.5 0
-0.5625 0.5 0
-0.5625 0.4375 0
-0.5 0.4375 0
-0.5625 0.5 0
-0.5 0.5 0
-0.25 0.125 0
-0.1875 0.125 0
-0.25 0.1875 0
-0.1875 0.1875 0
-0.1875 0.125 0
-0.125 0.125 0
-0.1875 0.1875 0
-0.125 0.1875 0
-0.25 0.1875 0
-0.1875 0.1875 0
-0.25 0.25 0
-0.1875 0.25 0
-0.1875 0.1875 0
-0.125 0.1875 0
-0.1875 0.25 0
-0.125 0.25 0
-0.875 0.625 0
-0.8125 0.625 0
-0.875 0.6875 0
-0.8125 0.6875 0
-0.8125 0.625 0
-0.75 0.625 0
-0.8125 0.6875 0
-0.75 0.6875 0
-0.875 0.6875 0
-0.8125 0.6875 0
-0.875 0.75 0
-0.8125 0.75 0
-0.8125 0.6875 0
-0.75 0.6875 0
-0.8125 0.75 0
-0.75 0.75 0
-0.875 0.75 0
-0.8125 0.75 0
-0.875 0.8125 0
-0.8125 0.8125 0
-0.8125 0.75 0
-0.75 0.75 0
-0.8125 0.8125 0
-0.75 0.8125 0
-0.8125 0.8125 0
-0.75 0.8125 0
-0.8125 0.875 0
-0.75 0.875 0
-0.5 -0.125 0
-0.4375 -0.125 0
-0.5 -0.0625 0
-0.4375 -0.0625 0
-0.4375 -0.125 0
-0.375 -0.125 0
-0.4375 -0.0625 0
-0.375 -0.0625 0
-0.5 -0.0625 0
-0.4375 -0.0625 0
-0.5 0 0
-0.4375 0 0
-0.4375 -0.0625 0
-0.375 -0.0625 0
-0.4375 0 0
-0.375 0 0
-0.375 -0.125 0
-0.3125 -0.125 0
-0.375 -0.0625 0
-0.3125 -0.0625 0
-0.3125 -0.125 0
-0.25 -0.125 0
-0.3125 -0.0625 0
-0.25 -0.0625 0
-0.375 -0.0625 0
-0.3125 -0.0625 0
-0.375 0 0
-0.3125 0 0
-0.3125 -0.0625 0
-0.25 -0.0625 0
-0.3125 0 0
-0.25 0 0
-0.625 0 0
-0.5625 0 0
-0.625 0.0625 0
-0.5625 0.0625 0
-0.5625 0 0
-0.5 0 0
-0.5625 0.0625 0
-0.5 0.0625 0
-0.625 0.0625 0
-0.5625 0.0625 0
-0.625 0.125 0
-0.5625 0.125 0
-0.5625 0.0625 0
-0.5 0.0625 0
-0.5625 0.125 0
-0.5 0.125 0
0 -0.625 0
0.0625 -0.625 0
0 -0.5625 0
0.0625 -0.5625 0
0.0625 -0.625 0
0.125 -0.625 0
0.0625 -0.5625 0
0.125 -0.5625 0
0 -0.5625 0
0.0625 -0.5625 0
0 -0.5 0
0.0625 -0.5 0
0.0625 -0.5625 0
0.125 -0.5625 0
0.0625 -0.5 0
0.125 -0.5 0
-0.625 0.125 0
-0.5625 0.125 0
-0.625 0.1875 0
-0.5625 0.1875 0
-0.625 0.1875 0
-0.5625 0.1875 0
-0.625 0.25 0
-0.5625 0.25 0
-0.5 0 0
-0.4375 0 0
-0.5 0.0625 0
-0.4375 0.0625 0
-0.4375 0 0
-0.375 0 0
-0.4375 0.0625 0
-0.375 0.0625 0
-0.5 0.0625 0
-0.4375 0.0625 0
-0.5 0.125 0
-0.4375 0.125 0
-0.4375 0.0625 0
-0.375 0.0625 0
-0.4375 0.125 0
-0.375 0.125 0
0 -0.5 0
0.0625 -0.5 0
0 -0.4375 0
0.0625 -0.4375 0
0.0625 -0.5 0
0.125 -0.5 0
0.0625 -0.4375 0
0.125 -0.4375 0
0 -0.4375 0
0.0625 -0.4375 0
0 -0.375 0
0.0625 -0.375 0
0.0625 -0.4375 0
0.125 -0.4375 0
0.0625 -0.375 0
0.125 -0.375 0
-0.25 -0.125 0
-0.1875 -0.125 0
-0.25 -0.0625 0
-0.1875 -0.0625 0
-0.1875 -0.125 0
-0.125 -0.125 0
-0.1875 -0.0625 0
-0.125 -0.0625 0
-0.25 -0.0625 0
-0.1875 -0.0625 0
-0.25 0 0
-0.1875 0 0
-0.1875 -0.0625 0
-0.125 -0.0625 0
-0.1875 0 0
-0.125 0 0
-0.125 -0.125 0
-0.0625 -0.125 0
-0.125 -0.0625 0
-0.0625 -0.0625 0
-0.0625 -0.125 0
0 -0.125 0
-0.0625 -0.0625 0
0 -0.0625 0
-0.125 -0.0625 0
-0.0625 -0.0625 0
-0.125 0 0
-0.0625 0 0
-0.0625 -0.0625 0
0 -0.0625 0
-0.0625 0 0
0 0 0
0.5 -0.625 0
0.5625 -0.625 0
0.5 -0.5625 0
0.5625 -0.5625 0
0.5625 -0.625 0
0.625 -0.625 0
0.5625 -0.5625 0
0.625 -0.5625 0
0.5 -0.5625 0
0.5625 -0.5625 0
0.5 -0.5 0
0.5625 -0.5 0
0.5625 -0.5625 0
0.625 -0.5625 0
0.5625 -0.5 0
0.625 -0.5 0
0.625 -0.625 0
0.6875 -0.625 0
0.625 -0.5625 0
0.6875 -0.5625 0
0.6875 -0.625 0
0.75 -0.625 0
0.6875 -0.5625 0
0.75 -0.5625 0
0.625 -0.5625 0
0.6875 -0.5625 0
0.625 -0.5 0
0.6875 -0.5 0
0.6875 -0.5625 0
0.75 -0.5625 0
0.6875 -0.5 0
0.75 -0.5 0
0.75 -0.625 0
0.8125 -0.625 0
0.75 -0.5625 0
0.8125 -0.5625 0
0.8125 -0.625 0
0.875 -0.625 0
0.8125 -0.5625 0
0.875 -0.5625 0
0.75 -0.5625 0
0.8125 -0.5625 0
0.75 -0.5 0
0.8125 -0.5 0
0.8125 -0.5625 0
0.875 -0.5625 0
0.8125 -0.5 0
0.875 -0.5 0
-0.875 0.375 0
-0.8125 0.375 0
-0.875 0.4375 0
-0.8125 0.4375 0
-0.8125 0.375 0
-0.75 0.375 0
-0.8125 0.4375 0
-0.75 0.4375 0
-0.875 0.4375 0
-0.8125 0.4375 0
-0.875 0.5 0
-0.8125 0.5 0
0.375 -0.5 0
0.4375 -0.5 0
0.375 -0.4375 0
0.4375 -0.4375 0
0.4375 -0.5 0
0.5 -0.5 0
0.4375 -0.4375 0
0.5 -0.4375 0
0.375 -0.4375 0
0.4375 -0.4375 0
0.375 -0.375 0
0.4375 -0.375 0
0.4375 -0.4375 0
0.5 -0.4375 0
0.4375 -0.375 0
0.5 -0.375 0
0.375 -0.375 0
0.4375 -0.375 0
0.375 -0.3125 0
0.4375 -0.3125 0
0.4375 -0.375 0
0.5 -0.375 0
0.4375 -0.3125 0
0.5 -0.3125 0
0.375 -0.3125 0
0.4375 -0.3125 0
0.375 -0.25 0
0.4375 -0.25 0
0.4375 -0.3125 0
0.5 -0.3125 0
0.4375 -0.25 0
0.5 -0.25 0
-0.125 0 0
-0.0625 0 0
-0.125 0.0625 0
-0.0625 0.0625 0
-0.0625 0 0
0 0 0
-0.0625 0.0625 0
0 0.0625 0
-0.125 0.0625 0
-0.0625 0.0625 0
-0.125 0.125 0
-0.0625 0.125 0
-0.0625 0.0625 0
0 0.0625 0
-0.0625 0.125 0
0 0.125 0
0 -0.25 0
0.0625 -0.25 0
0 -0.1875 0
0.0625 -0.1875 0
0.0625 -0.25 0
0.125 -0.25 0
0.0625 -0.1875 0
0.125 -0.1875 0
0 -0.1875 0
0.0625 -0.1875 0
0 -0.125 0
0.0625 -0.125 0
0.0625 -0.1875 0
0.125 -0.1875 0
0.0625 -0.125 0
0.125 -0.125 0
-0.75 0.25 0
-0.6875 0.25 0
-0.75 0.3125 0
-0.6875 0.3125 0
-0.6875 0.25 0
-0.625 0.25 0
-0.6875 0.3125 0
-0.625 0.3125 0
-0.75 0.3125 0
-0.6875 0.3125 0
-0.75 0.375 0
-0.6875 0.375 0
-0.6875 0.3125 0
-0.625 0.3125 0
-0.6875 0.375 0
-0.625 0.375 0
0 -0.125 0
0.0625 -0.125 0
0 -0.0625 0
0.0625 -0.0625 0
0.0625 -0.125 0
0.125 -0.125 0
0.0625 -0.0625 0
0.125 -0.0625 0
0 -0.0625 0
0.0625 -0.0625 0
0 0 0
0.0625 0 0
0.0625 -0.0625 0
0.125 -0.0625 0
0.0625 0 0
0.125 0 0
-0.0625 0.125 0
0 0.125 0
-0.0625 0.1875 0
0 0.1875 0
[...]
POINT_DATA 6864
SCALARS U double 1
LOOKUP_TABLE default
0 0 0 8.77203e-05 0 0 8.77203e-05 0.000204611 0 8.77203e-05 0 0.000164405 8.77203e-05 0.000204611 0.000164405 0.000353188 0 0 0.000204611 0.000395634 0 0.000164405 0 0.000224378 0.000164405 0.000353188 0.000224378 0.000435511 0 0.000224378 0 0.000334608 0.000353188 0.000630779 0.000435511 0.000627023 0 0 0.00104042 0.00115346 0 0 0.00115346 0.000798324 0 0 0.000798324 0 0.00085581 0 0 0 0 0.000334608 0 0.00085903 0.000224378 0.000329944 0.000279493 0.000387321 0.000329944 0.000435511 0.000387321 0.000493009 0.000279493 0.000387321 0.000334608 0.000522975 0.000387321 0.000493009 0.000522975 0.000666258 0.000435511 0.000531267 0.000493009 0.000577345 0.000531267 0.000627023 0.000577345 0.000604416 0.000693887 0.000868286 0.00092536 0.00116078 0.000868286 0.00104042 0.00116078 0.0013758 0.00116078 0.0013758 0.00129733 0.00152311 0.00129733 0.00152311 0.0012282 0.00144471 0.00100373 0.0012282 0.000840527 0.000981577 0.0012282 0.00144471 0.000981577 0.00113128 0 0 0.000197817 0.000282867 0 0 0.000282867 0.000363401 0.000197817 0.000282867 0.000395634 0.00053507 0.000282867 0.000363401 0.00053507 0.000693887 0.000204611 0.000300123 0.0002789 0.000396308 0.000300123 0.000395634 0.000396308 0.00053492 0.0002789 0.000396308 0.000353188 0.000491984 0.000396308 0.00053492 0.000491984 0.000630779 0.000395634 0.00053507 0.00053492 0.000716366 0.00053507 0.000693887 0.000716366 0.00092536 0.00053492 0.000716366 0.000630779 0.000825379 0.000716366 0.00092536 0.000825379 0.00104954 0.000630779 0.000825379 0.000628901 0.000813177 0.000825379 0.00104954 0.000813177 0.00100373 0.000628901 0.000813177 0.000627023 0.000721781 0.000813177 0.00100373 0.000721781 0.000840527 0.000334608 0.000522975 0.000596819 0.000838171 0.000596819 0.000838171 0.00085903 0.00158756 0 0 0.000363401 0.00045136 0 0 0.00045136 0.000520212 0.000363401 0.00045136 0.000693887 0.000868286 0.00045136 0.000520212 0.000868286 0.00104042 0.000744922 0.0007159 0.0013465 0.00125382 0.00104042 0.00109694 0.0013758 0.00151324 0.00109694 0.00115346 0.00151324 0.00151847 0.0013758 0.00151324 0.00152311 0.0016759 0.00151324 0.00151847 0.0016759 0.00167219 0.000627023 0.000721781 0.000604416 0.000578097 0.000721781 0.000840527 0.000578097 0.00052731 0 0.000429515 0 0.000580267 0.000429515 0.00085903 0.000580267 0.00147454 0 0.000580267 0 0.000811209 0.00115346 0.000975892 0.00151847 0.00136161 0.000975892 0.000798324 0.00136161 0.00103142 0.000798324 0.000399162 0.00103142 0.000562242 0.000399162 0 0.000562242 0 0.000562242 0 0.000618887 0 0.00152311 0.0016759 0.00144471 0.00157775 0.00144471 0.00157775 0.00113128 0.0012328 0.0007159 0.000480698 0.00125382 0.00075471 0 0.000961325 0 0.000891488 0.000981577 0.00113128 0.000557215 0.000622276 0.000557215 0.000622276 0 0 0.00113128 0.0012328 0.000622276 0.000677481 0.000622276 0.000677481 0 0 0.000677481 0.000673536 0 0 0.000618887 0 0.000587613 0 0.0010717 0.000587613 0.00085581 0.000427905 0.000587613 0 0.000427905 0 0.00109855 0.00085581 0.000609617 0.000427905 0.000673536 0.000609617 0 0 0.000609617 0.000427905 0 0 0 0.0005368 0 0 0.0020206 0.00242709 0.00285357 0.0034968 0.00220919 0.00285357 0.0029977 0.00399348 0.00285357 0.0034968 0.00399348 0.00500032 0.00215978 0.0029977 0.00276273 0.00395286 0.0018676 0.00276273 0.00224311 0.0033752 0.00276273 0.00395286 0.0033752 0.00492911 0.0029977 0.00399348 0.00395286 0.00543233 0.00399348 0.00500032 0.00543233 0.00701606 0.00395286 0.00543233 0.00492911 0.00698476 0.00543233 0.00701606 0.00698476 0.00926061 0.00125382 0.00100426 0.00183252 0.00154436 0.00100426 0.00075471 0.00154436 0.00111519 0.00183252 0.00154436 0.0028356 0.00240941 0.00154436 0.00111519 0.00240941 0.00175083 0.000961325 0.00168236 0.000926406 0.00169174 0.00168236 0.00274786 0.00169174 0.00281735 0.000926406 0.00169174 0.000891488 0.00158578 0.00169174 0.00281735 0.00158578 0.002647 0.000891488 0.00158578 0.000761263 0.00134203 0.00158578 0.002647 0.00134203 0.00225432 0.00134203 0.00225432 0.00097724 0.0016392 0.000493009 0.000535177 0.000579634 0.000602112 0.000535177 0.000577345 0.000602112 0.000624962 0.000579634 0.000602112 0.000666258 0.000743263 0.000602112 0.000624962 0.000743263 0.000744922 0.000577345 0.000590881 0.000624962 0.000640864 0.000590881 0.000604416 0.000640864 0.000612489 0.000624962 0.000640864 0.000744922 0.000730411 0.000640864 0.000612489 0.000730411 0.0007159 0.000522975 0.000594617 0.000680573 0.000762753 0.000594617 0.000666258 0.000762753 0.000860924 0.000680573 0.000762753 0.000838171 0.00103112 0.000762753 0.000860924 0.00103112 0.00118218 0.00092536 0.00104307 0.000987451 0.00112521 0.00104307 0.00116078 0.00112521 0.00122905 0.000987451 0.00112521 0.00104954 0.00114896 0.00112521 0.00122905 0.00114896 0.00129733 0.000838171 0.00103112 0.00121286 0.00141867 0.00121286 0.00141867 0.00158756 0.0020206 0.000666258 0.000743263 0.000860924 0.000941629 0.000743263 0.000744922 0.000941629 0.00104571 0.000860924 0.000941629 0.00118218 0.00131497 0.000941629 0.00104571 0.00131497 0.0013465 0.00104954 0.00114896 0.00102663 0.00116333 0.00114896 0.00129733 0.00116333 0.00126277 0.00102663 0.00116333 0.00100373 0.00111597 0.00116333 0.00126277 0.00111597 0.0012282 0.000604416 0.000591257 0.000612489 0.000581443 0.000591257 0.000578097 0.000581443 0.000496222 0.000612489 0.000581443 0.0007159 0.000598299 0.000581443 0.000496222 0.000598299 0.000480698 0.000578097 0.000552704 0.000496222 0.000392985 0.000552704 0.00052731 0.000392985 0.000334417 0.000496222 0.000392985 0.000480698 0.000338888 0.000392985 0.000334417 0.000338888 0 0.00151847 0.00144004 0.00159533 0.0015745 0.00144004 0.00136161 0.0015745 0.00145007 0.00159533 0.0015745 0.00167219 0.0016011 0.0015745 0.00145007 0.0016011 0.00148249 0.00136161 0.00119652 0.00145007 0.00131296 0.00119652 0.00103142 0.00131296 0.00109967 0.00145007 0.00131296 0.00148249 0.00133763 0.00131296 0.00109967 0.00133763 0.00112461 0.00103142 0.000796831 0.00109967 0.000874841 0.000796831 0.000562242 0.000874841 0.000590564 0.00109967 0.000874841 0.00112461 0.000890094 0.000874841 0.000590564 0.000890094 0.000618887 0.000580267 0.00102741 0.000695738 0.00119715 0.00102741 0.00147454 0.00119715 0.0018676 0.000695738 0.00119715 0.000811209 0.00141613 0.0016759 0.00167404 0.00162682 0.00168498 0.00167404 0.00167219 0.00168498 0.00165281 0.00162682 0.00168498 0.00157775 0.00158047 0.00168498 0.00165281 0.00158047 0.00155832 0.00157775 0.00158047 0.00140527 0.00145775 0.00158047 0.00155832 0.00145775 0.00143025 0.00140527 0.00145775 0.0012328 0.0012314 0.00145775 0.00143025 0.0012314 0.00121373 0.000480698 0.000338888 0.000617704 0.000292708 0.000338888 0 0.000292708 0 0.000617704 0.000292708 0.00075471 0.000413366 0.000292708 0 0.000413366 0 0.000840527 0.000911052 0.000683918 0.000743985 0.000911052 0.000981577 0.000743985 0.000769396 0.000683918 0.000743985 0.00052731 0.000516976 0.000743985 0.000769396 0.000516976 0.000557215 0.00085903 0.00122329 0.00116679 0.00163108 0.00122329 0.00158756 0.00163108 0.00220919 0.00116679 0.00163108 0.00147454 0.00215978 0.00163108 0.00220919 0.00215978 0.0029977 0.00052731 0.000516976 0.000334417 0.000275441 0.000516976 0.000557215 0.000275441 0.000278608 0.000334417 0.000275441 0 0 0.000275441 0.000278608 0 0 0.000413366 0 0.000579622 0 0.000579622 0 0.000906512 0 0 0.000405604 0 0.000422597 0.000405604 0.000811209 0.000422597 0.000935174 0 0.000422597 0 0.000480662 0.000422597 0.000935174 0.000480662 0.000961325 0.0012328 0.0012314 0.000955141 0.000989823 0.0012314 0.00121373 0.000989823 0.000969979 0.000955141 0.000989823 0.000677481 0.000675509 0.000989823 0.000969979 0.000675509 0.000673536 0 0.000445744 0 0.000344057 0.000445744 0.000891488 0.000344057 0.000761263 0 0.000344057 0 0.0002684 0.000344057 0.000761263 0.0002684 0.0005368 0.0005368 0.00097724 0.0002684 0.00051264 0.0002684 0.00051264 0 0 0.00051264 0.000847476 0 0 0.00167219 0.0016011 0.00165281 0.0016066 0.0016011 0.00148249 0.0016066 0.00148418 0.00165281 0.0016066 0.00155832 0.00151166 0.0016066 0.00148418 0.00151166 0.00139781 0.00148249 0.00133763 0.00148418 0.00134063 0.00133763 0.00112461 0.00134063 0.00112535 0.00148418 0.00134063 0.00139781 0.00126096 0.00134063 0.00112535 0.00126096 0.0010717 0.00155832 0.00151166 0.00143025 0.00138868 0.00151166 0.00139781 0.00138868 0.00128271 0.00143025 0.00138868 0.00121373 0.00117592 0.00138868 0.00128271 0.00117592 0.00109855 0.00139781 0.00126096 0.00128271 0.00116157 0.00126096 0.0010717 0.00116157 0.000963757 0.00128271 0.00116157 0.00109855 0.000977182 0.00116157 0.000963757 0.000977182 0.00085581 0.00112461 0.000890094 0.00112535 0.000895137 0.000890094 0.000618887 0.000895137 0.00060325 0.00112535 0.000895137 0.0010717 0.000829658 0.000895137 0.00060325 0.000829658 0.000587613 0.00121373 0.00117592 0.000969979 0.000943749 0.00117592 0.00109855 0.000943749 0.000854085 0.000969979 0.000943749 0.000673536 0.000641577 0.000943749 0.000854085 0.000641577 0.000609617 0.0013465 0.00130016 0.00196659 0.00196964 0.00130016 0.00125382 0.00196964 0.00183252 0.00196659 0.00196964 0.00295836 0.00302301 0.00196964 0.00183252 0.00302301 0.0028356 0.000906512 0 0.00142426 0 0.00142426 0 0.00222992 0 0.00242709 0.00276042 0.0034968 0.00408686 0.00276042 0.00295836 0.00408686 0.00443098 0.00224311 0.0033752 0.00255705 0.00394378 0.00255705 0.00394378 0.00274786 0.0042795 0.000847476 0.00138175 0 0 0.00138175 0.00219842 0 0 0.0193702 0.0185476 0.0196572 0.0188239 0.0185476 0.0172421 0.0188239 0.0175181 0.0196572 0.0188239 0.0196404 0.0188216 0.0188239 0.0175181 0.0188216 0.0175089 0.0193606 0.0196515 0.0185369 0.0188167 0.0185369 0.0188167 0.0172312 0.0175104 0.0196515 0.019638 0.0188167 0.0188175 0.0188167 0.0188175 0.0175104 0.017504 0.00158756 0.00180408 0.00189837 0.00212311 0.00180408 0.0020206 0.00212311 0.00243708 0.00189837 0.00212311 0.00220919 0.00253138 0.00212311 0.00243708 0.00253138 0.00285357 0.00147454 0.00181716 0.00167107 0.00202214 0.00181716 0.00215978 0.00202214 0.00246126 0.00167107 0.00202214 0.0018676 0.00231517 0.00202214 0.00246126 0.00231517 0.00276273 0.00529688 0.00499322 0.0064886 0.006102 0.00499322 0.00456541 0.006102 0.0056227 0.00456541 0.00402256 0.0056227 0.0049439 0.00402256 0.00340382 0.0049439 0.00417569 0.00222992 0.00111496 0.00278003 0.00139852 0.00111496 0 0.00139852 0 0.00278003 0.00139852 0.00339999 0.00174385 0.00139852 0 0.00174385 0 0.00339999 0.00174385 0.00406862 0.0020805 0.00174385 0 0.0020805 0 0.00406862 0.0020805 0.00475844 0.00245242 0.0020805 0 0.00245242 0 0.0034968 0.00379183 0.00424856 0.00460166 0.00379183 0.00408686 0.00460166 0.00493461 0.00424856 0.00460166 0.00500032 0.00555856 0.00408686 0.00425892 0.00493461 0.00521056 0.00425892 0.00443098 0.00521056 0.0054096 0.00493461 0.00521056 0.00595521 0.00630199 0.00521056 0.0054096 0.00630199 0.00659024 0.000761263 0.00105165 0.000649032 0.000882964 0.00105165 0.00134203 0.000882964 0.00115963 0.000649032 0.000882964 0.0005368 0.00075702 0.000882964 0.00115963 0.00075702 0.00097724 0.00103112 0.00110665 0.0012249 0.00129755 0.00110665 0.00118218 0.00129755 0.0013853 0.0012249 0.00129755 0.00141867 0.00157243 0.00129755 0.0013853 0.00157243 0.00168576 0.00624245 0.00488442 0.00752404 0.0059039 0.00488442 0.00339999 0.0059039 0.00406862 0.00752404 0.0059039 0.00871512 0.00687773 0.0059039 0.00406862 0.00687773 0.00475844 0.0054096 0.00555736 0.00659024 0.00673354 0.00555736 0.00557355 0.00673354 0.00679722 0.00557355 0.00549555 0.00679722 0.00668841 0.00549555 0.00529688 0.00668841 0.0064886 0.00500032 0.00555856 0.00600819 0.00657487 0.00600819 0.00657487 0.00701606 0.00783833 0.00657487 0.00718498 0.00783833 0.00845975 0.00701606 0.00783833 0.00813833 0.0090471 0.00783833 0.00845975 0.0090471 0.00996522 0.00813833 0.0090471 0.00926061 0.0103896 0.0090471 0.00996522 0.0103896 0.0113543 0.0033752 0.00415216 0.00365949 0.00449433 0.00415216 0.00492911 0.00449433 0.00547431 0.00365949 0.00449433 0.00394378 0.00481886 0.00394378 0.00481886 0.00411164 0.00508747 0.00481886 0.00586173 0.00508747 0.00620179 0.00411164 0.00508747 0.0042795 0.00528299 0.00508747 0.00620179 0.00528299 0.00648465 0.00492911 0.00595694 0.00547431 0.00651222 0.00595694 0.00698476 0.00651222 0.00779359 0.00651222 0.00779359 0.00711181 0.00840554 0.00698476 0.00812268 0.00779359 0.00901978 0.00812268 0.00926061 0.00901978 0.0103765 0.00779359 0.00901978 0.00840554 0.00992707 0.00901978 0.0103765 0.00992707 0.0113311 0.00141867 0.00157243 0.00171963 0.00184353 0.00157243 0.00168576 0.00184353 0.00198781 0.00171963 0.00184353 0.0020206 0.00222384 0.00184353 0.00198781 0.00222384 0.00242709 0.00528299 0.00648465 0.0054283 0.0066263 0.0054283 0.0066263 0.00544603 0.00668947 0.00118218 0.00124858 0.0013853 0.00147283 0.00124858 0.00131497 0.00147283 0.00153248 0.0013853 0.00147283 0.00168576 0.00179986 0.00147283 0.00153248 0.00179986 0.00188366 0.00544603 0.00668947 0.00537125 0.00658388 0.00537125 0.00658388 0.00517883 0.00638841 0.00131497 0.00133074 0.00153248 0.00159021 0.00133074 0.0013465 0.00159021 0.00165655 0.00153248 0.00159021 0.00188366 0.00197292 0.00159021 0.00165655 0.00197292 0.00196659 0.00517883 0.00638841 0.00488363 0.00600938 0.00488363 0.00600938 0.00446688 0.00553867 0.00201117 0 0.0014015 0 0.00201113 0.00140149 0 0 0.00280819 0.0014015 0.00140149 0.000697959 0.0014015 0 0.000697959 0 0.00140149 0.000697959 0 0 0.000697959 0 0 0 0.00168576 0.00179986 0.00198781 0.00213307 0.00179986 0.00188366 0.00213307 0.00223428 0.00198781 0.00213307 0.00242709 0.00259376 0.00213307 0.00223428 0.00259376 0.00276042 0.00446688 0.00553867 0.00393708 0.0048712 0.00393708 0.0048712 0.00333298 0.00411524 0.00219842 0.00275317 0.00109921 0.00138499 0.00275317 0.00337718 0.00138499 0.00173232 0.00109921 0.00138499 0 0 0.00138499 0.00173232 0 0 0.00337718 0.00404945 0.00173232 0.00207075 0.00404945 0.00474244 0.00207075 0.0024443 0.00173232 0.00207075 0 0 0.00207075 0.0024443 0 0 0.0192156 0.0191002 0.0198565 0.0198444 0.0198565 0.0198444 0.0201565 0.0201379 0.0198444 0.0193702 0.0201379 0.0196572 0.0192056 0.0198523 0.0190874 0.0198368 0.0198523 0.0201565 0.0198368 0.0201345 0.0198368 0.0201345 0.0193606 0.0196515 0.0201379 0.0196572 0.0201121 0.0196404 0.0201345 0.0201121 0.0196515 0.019638 0.00188366 0.00197292 0.00223428 0.00234196 0.00197292 0.00196659 0.00234196 0.00246248 0.00223428 0.00234196 0.00276042 0.00285939 0.00234196 0.00246248 0.00285939 0.00295836 0.00119715 0.00153238 0.00130664 0.00163727 0.00153238 0.0018676 0.00163727 0.00205536 0.00130664 0.00163727 0.00141613 0.00176813 0.00163727 0.00205536 0.00176813 0.00224311 0.00075471 0.000584038 0.000934951 0.000701765 0.000584038 0.000413366 0.000701765 0.000496494 0.000934951 0.000701765 0.00111519 0.000894984 0.000701765 0.000496494 0.000894984 0.000579622 0.00111519 0.000894984 0.00143301 0.00107655 0.000894984 0.000579622 0.00107655 0.000743067 0.00143301 0.00107655 0.00175083 0.00137826 0.00107655 0.000743067 0.00137826 0.000906512 0.000811209 0.00111367 0.000873191 0.00115645 0.00111367 0.00141613 0.00115645 0.0015293 0.000873191 0.00115645 0.000935174 0.00120914 0.00115645 0.0015293 0.00120914 0.00160391 0.00141613 0.00176813 0.0015293 0.0019021 0.00176813 0.00224311 0.0019021 0.00240008 0.0015293 0.0019021 0.00160391 0.00199787 0.0019021 0.00240008 0.00199787 0.00255705 0.000935174 0.00120914 0.000948249 0.00126006 0.00120914 0.00160391 0.00126006 0.00168564 0.000948249 0.00126006 0.000961325 0.00132184 0.00126006 0.00168564 0.00132184 0.00168236 0.00160391 0.00199787 0.00168564 0.00209851 0.00199787 0.00255705 0.00209851 0.00265245 0.00168564 0.00209851 0.00168236 0.00221511 0.00209851 0.00265245 0.00221511 0.00274786 0.00097724 0.00130822 0.00074494 0.000978484 0.00130822 0.0016392 0.000978484 0.00129362 0.00074494 0.000978484 0.00051264 0.000680058 0.000978484 0.00129362 0.000680058 0.000847476 0.0028356 0.00262251 0.00342143 0.00324174 0.00262251 0.00240941 0.00324174 0.00291513 0.00342143 0.00324174 0.0043021 0.00407973 0.00324174 0.00291513 0.00407973 0.00368804 0.00619916 0.00748784 0.00485106 0.00587582 0.00748784 0.00868529 0.00587582 0.00685448 0.00485106 0.00587582 0.00337718 0.00404945 0.00587582 0.00685448 0.00404945 0.00474244 0.00240941 0.00208012 0.00291513 0.00258946 0.00208012 0.00175083 0.00258946 0.00213777 0.00291513 0.00258946 0.00368804 0.00327884 0.00258946 0.00213777 0.00327884 0.00272065 0.00295836 0.00299069 0.00369467 0.00367373 0.00299069 0.00302301 0.00367373 0.00363521 0.00369467 0.00367373 0.00443098 0.00458745 0.00367373 0.00363521 0.00458745 0.00454786 0.00302301 0.00292931 0.00363521 0.00360053 0.00292931 0.0028356 0.00360053 0.00342143 0.00363521 0.00360053 0.00454786 0.00450702 0.00360053 0.00342143 0.00450702 0.0043021 0.00274786 0.00351368 0.0027826 0.0034944 0.00351368 0.0042795 0.0034944 0.00443333 0.0027826 0.0034944 0.00281735 0.00346073 0.0034944 0.00443333 0.00346073 0.00439729 0.0113543 0.0121738 0.0127615 0.0137653 0.0121738 0.0128542 0.0137653 0.0144916 0.0127615 0.0137653 0.0140594 0.0151583 0.0137653 0.0144916 0.0151583 0.0160221 0.0113311 0.0127508 0.0121421 0.0137456 0.0127508 0.0140594 0.0137456 0.0151495 0.0121421 0.0137456 0.0128154 0.0144651 0.0137456 0.0151495 0.0144651 0.0160061 0.0140594 0.0151583 0.0151495 0.0163797 0.0151583 0.0160221 0.0163797 0.0172321 0.0151495 0.0163797 0.0160061 0.0172245 0.0128542 0.0132189 0.0144916 0.0150073 0.0132189 0.0134378 0.0150073 0.0151359 0.0144916 0.0150073 0.0160221 0.0165147 0.00281735 0.00346073 0.00273218 0.00343038 0.00346073 0.00439729 0.00343038 0.00436029 0.00273218 0.00343038 0.002647 0.003262 0.00343038 0.00436029 0.003262 0.00416429 0.002647 0.003262 0.00245066 0.00309296 0.003262 0.00416429 0.00309296 0.00395107 0.00245066 0.00309296 0.00225432 0.002783 0.00309296 0.00395107 0.002783 0.00357323 0.00225432 0.002783 0.00194676 0.00247352 0.002783 0.00357323 0.00247352 0.0031782 0.00194676 0.00247352 0.0016392 0.00204319 0.00247352 0.0031782 0.00204319 0.00263792 0.00175083 0.00137826 0.00213777 0.00170162 0.00137826 0.000906512 0.00170162 0.00116539 0.00213777 0.00170162 0.00272065 0.00209988 0.00170162 0.00116539 0.00209988 0.00142426 0.00209988 0.00142426 0.00263693 0.00182709 0.00263693 0.00182709 0.0032537 0.00222992 0.0128154 0.0144651 0.013176 0.0149758 0.0144651 0.0160061 0.0149758 0.0164937 0.013176 0.0149758 0.0133921 0.0151011 0.0130045 0.0123247 0.0146817 0.0140585 0.0123247 0.0114719 0.0140585 0.0130133 0.0146817 0.0140585 0.0163403 0.0155821 0.0140585 0.0130133 0.0155821 0.0144322 0.0114719 0.0102101 0.0130133 0.0116572 0.0102101 0.00871512 0.0116572 0.00992004 0.00245242 0 0.00274451 0 0.00540371 0.00274451 0.00605061 0.00305226 0.0129624 0.014652 0.0122884 0.0140056 0.014652 0.0163203 0.0140056 0.0155159 0.0122884 0.0140056 0.0114383 0.0129727 0.0114383 0.0129727 0.0101755 0.0116351 0.0101755 0.0116351 0.00868529 0.00989479 0.00539057 0.00603993 0.00273783 0.0030468 0.0024443 0.00273783 0 0 0.0016392 0.00204319 0.00129362 0.00162761 0.00204319 0.00263792 0.00162761 0.00203679 0.00129362 0.00162761 0.000847476 0.00111461 0.00162761 0.00203679 0.00111461 0.00138175 0.00203679 0.00258271 0.00138175 0.00179008 0.00258271 0.00320731 0.00179008 0.00219842 0.0185981 0.0182952 0.0189977 0.0186052 0.0182952 0.0177981 0.0186052 0.0181827 0.0189977 0.0186052 0.0193702 0.0189589 0.0186052 0.0181827 0.0189589 0.0185476 0.0177981 0.0172648 0.0181827 0.0175552 0.0172648 0.0165222 0.0175552 0.0169046 0.0181827 0.0175552 0.0185476 0.0178949 0.0175552 0.0169046 0.0178949 0.0172421 0.0043021 0.00419092 0.00473506 0.00463448 0.00419092 0.00407973 0.00463448 0.00447364 0.00473506 0.00463448 0.00529688 0.00514505 0.00463448 0.00447364 0.00514505 0.00499322 0.00407973 0.00388389 0.00447364 0.00430016 0.00388389 0.00368804 0.00430016 0.00406682 0.00447364 0.00430016 0.00499322 0.00477932 0.00430016 0.00406682 0.00477932 0.00456541 0.0165222 0.0158157 0.0169046 0.0160773 0.0158157 0.014878 0.0160773 0.0152294 0.016