<?xml version="1.0" ?> 
<!-- 
# vtk DataFile Version 3.0
#This file was generated by the deal.II library on 21:45:54 at 2021/4/29
-->
<VTKFile type="UnstructuredGrid" version="0.1" byte_order="LittleEndian">
<UnstructuredGrid>
<Piece NumberOfPoints="65536" NumberOfCells="16384" >
  <Points>
    <DataArray type="Float32" NumberOfComponents="3" format="ascii">
-1 -1 0
-0.984375 -1 0
-1 -0.984375 0
-0.984375 -0.984375 0
-0.984375 -1 0
-0.96875 -1 0
-0.984375 -0.984375 0
-0.96875 -0.984375 0
-1 -0.984375 0
-0.984375 -0.984375 0
-1 -0.96875 0
-0.984375 -0.96875 0
-0.984375 -0.984375 0
-0.96875 -0.984375 0
-0.984375 -0.96875 0
-0.96875 -0.96875 0
-0.96875 -1 0
-0.953125 -1 0
-0.96875 -0.984375 0
-0.953125 -0.984375 0
-0.953125 -1 0
-0.9375 -1 0
-0.953125 -0.984375 0
-0.9375 -0.984375 0
-0.96875 -0.984375 0
-0.953125 -0.984375 0
-0.96875 -0.96875 0
-0.953125 -0.96875 0
-0.953125 -0.984375 0
-0.9375 -0.984375 0
-0.953125 -0.96875 0
-0.9375 -0.96875 0
-1 -0.96875 0
-0.984375 -0.96875 0
-1 -0.953125 0
-0.984375 -0.953125 0
-0.984375 -0.96875 0
-0.96875 -0.96875 0
-0.984375 -0.953125 0
-0.96875 -0.953125 0
-1 -0.953125 0
-0.984375 -0.953125 0
-1 -0.9375 0
-0.984375 -0.9375 0
-0.984375 -0.953125 0
-0.96875 -0.953125 0
-0.984375 -0.9375 0
-0.96875 -0.9375 0
-0.96875 -0.96875 0
-0.953125 -0.96875 0
-0.96875 -0.953125 0
-0.953125 -0.953125 0
-0.953125 -0.96875 0
-0.9375 -0.96875 0
-0.953125 -0.953125 0
-0.9375 -0.953125 0
-0.96875 -0.953125 0
-0.953125 -0.953125 0
-0.96875 -0.9375 0
-0.953125 -0.9375 0
-0.953125 -0.953125 0
-0.9375 -0.953125 0
-0.953125 -0.9375 0
-0.9375 -0.9375 0
-0.9375 -1 0
-0.921875 -1 0
-0.9375 -0.984375 0
-0.921875 -0.984375 0
-0.921875 -1 0
-0.90625 -1 0
-0.921875 -0.984375 0
-0.90625 -0.984375 0
-0.9375 -0.984375 0
-0.921875 -0.984375 0
-0.9375 -0.96875 0
-0.921875 -0.96875 0
-0.921875 -0.984375 0
-0.90625 -0.984375 0
-0.921875 -0.96875 0
-0.90625 -0.96875 0
-0.90625 -1 0
-0.890625 -1 0
-0.90625 -0.984375 0
-0.890625 -0.984375 0
-0.890625 -1 0
-0.875 -1 0
-0.890625 -0.984375 0
-0.875 -0.984375 0
-0.90625 -0.984375 0
-0.890625 -0.984375 0
-0.90625 -0.96875 0
-0.890625 -0.96875 0
-0.890625 -0.984375 0
-0.875 -0.984375 0
-0.890625 -0.96875 0
-0.875 -0.96875 0
-0.9375 -0.96875 0
-0.921875 -0.96875 0
-0.9375 -0.953125 0
-0.921875 -0.953125 0
-0.921875 -0.96875 0
-0.90625 -0.96875 0
-0.921875 -0.953125 0
-0.90625 -0.953125 0
-0.9375 -0.953125 0
-0.921875 -0.953125 0
-0.9375 -0.9375 0
-0.921875 -0.9375 0
-0.921875 -0.953125 0
-0.90625 -0.953125 0
-0.921875 -0.9375 0
-0.90625 -0.9375 0
-0.90625 -0.96875 0
-0.890625 -0.96875 0
-0.90625 -0.953125 0
-0.890625 -0.953125 0
-0.890625 -0.96875 0
-0.875 -0.96875 0
-0.890625 -0.953125 0
-0.875 -0.953125 0
-0.90625 -0.953125 0
-0.890625 -0.953125 0
-0.90625 -0.9375 0
-0.890625 -0.9375 0
-0.890625 -0.953125 0
-0.875 -0.953125 0
-0.890625 -0.9375 0
-0.875 -0.9375 0
-1 -0.9375 0
-0.984375 -0.9375 0
-1 -0.921875 0
-0.984375 -0.921875 0
-0.984375 -0.9375 0
-0.96875 -0.9375 0
-0.984375 -0.921875 0
-0.96875 -0.921875 0
-1 -0.921875 0
-0.984375 -0.921875 0
-1 -0.90625 0
-0.984375 -0.90625 0
-0.984375 -0.921875 0
-0.96875 -0.921875 0
-0.984375 -0.90625 0
-0.96875 -0.90625 0
-0.96875 -0.9375 0
-0.953125 -0.9375 0
-0.96875 -0.921875 0
-0.953125 -0.921875 0
-0.953125 -0.9375 0
-0.9375 -0.9375 0
-0.953125 -0.921875 0
-0.9375 -0.921875 0
-0.96875 -0.921875 0
-0.953125 -0.921875 0
-0.96875 -0.90625 0
-0.953125 -0.90625 0
-0.953125 -0.921875 0
-0.9375 -0.921875 0
-0.953125 -0.90625 0
-0.9375 -0.90625 0
-1 -0.90625 0
-0.984375 -0.90625 0
-1 -0.890625 0
-0.984375 -0.890625 0
-0.984375 -0.90625 0
-0.96875 -0.90625 0
-0.984375 -0.890625 0
-0.96875 -0.890625 0
-1 -0.890625 0
-0.984375 -0.890625 0
-1 -0.875 0
-0.984375 -0.875 0
-0.984375 -0.890625 0
-0.96875 -0.890625 0
-0.984375 -0.875 0
-0.96875 -0.875 0
-0.96875 -0.90625 0
-0.953125 -0.90625 0
-0.96875 -0.890625 0
-0.953125 -0.890625 0
-0.953125 -0.90625 0
-0.9375 -0.90625 0
-0.953125 -0.890625 0
-0.9375 -0.890625 0
-0.96875 -0.890625 0
-0.953125 -0.890625 0
-0.96875 -0.875 0
-0.953125 -0.875 0
-0.953125 -0.890625 0
-0.9375 -0.890625 0
-0.953125 -0.875 0
-0.9375 -0.875 0
-0.9375 -0.9375 0
-0.921875 -0.9375 0
-0.9375 -0.921875 0
-0.921875 -0.921875 0
-0.921875 -0.9375 0
-0.90625 -0.9375 0
-0.921875 -0.921875 0
-0.90625 -0.921875 0
-0.9375 -0.921875 0
-0.921875 -0.921875 0
-0.9375 -0.90625 0
-0.921875 -0.90625 0
-0.921875 -0.921875 0
-0.90625 -0.921875 0
-0.921875 -0.90625 0
-0.90625 -0.90625 0
-0.90625 -0.9375 0
-0.890625 -0.9375 0
-0.90625 -0.921875 0
-0.890625 -0.921875 0
-0.890625 -0.9375 0
-0.875 -0.9375 0
-0.890625 -0.921875 0
-0.875 -0.921875 0
-0.90625 -0.921875 0
-0.890625 -0.921875 0
-0.90625 -0.90625 0
-0.890625 -0.90625 0
-0.890625 -0.921875 0
-0.875 -0.921875 0
-0.890625 -0.90625 0
-0.875 -0.90625 0
-0.9375 -0.90625 0
-0.921875 -0.90625 0
-0.9375 -0.890625 0
-0.921875 -0.890625 0
-0.921875 -0.90625 0
-0.90625 -0.90625 0
-0.921875 -0.890625 0
-0.90625 -0.890625 0
-0.9375 -0.890625 0
-0.921875 -0.890625 0
-0.9375 -0.875 0
-0.921875 -0.875 0
-0.921875 -0.890625 0
-0.90625 -0.890625 0
-0.921875 -0.875 0
-0.90625 -0.875 0
-0.90625 -0.90625 0
-0.890625 -0.90625 0
-0.90625 -0.890625 0
-0.890625 -0.890625 0
-0.890625 -0.90625 0
-0.875 -0.90625 0
-0.890625 -0.890625 0
-0.875 -0.890625 0
-0.90625 -0.890625 0
-0.890625 -0.890625 0
-0.90625 -0.875 0
-0.890625 -0.875 0
-0.890625 -0.890625 0
-0.875 -0.890625 0
-0.890625 -0.875 0
-0.875 -0.875 0
-0.875 -1 0
-0.859375 -1 0
-0.875 -0.984375 0
-0.859375 -0.984375 0
-0.859375 -1 0
-0.84375 -1 0
-0.859375 -0.984375 0
-0.84375 -0.984375 0
-0.875 -0.984375 0
-0.859375 -0.984375 0
-0.875 -0.96875 0
-0.859375 -0.96875 0
-0.859375 -0.984375 0
-0.84375 -0.984375 0
-0.859375 -0.96875 0
-0.84375 -0.96875 0
-0.84375 -1 0
-0.828125 -1 0
-0.84375 -0.984375 0
-0.828125 -0.984375 0
-0.828125 -1 0
-0.8125 -1 0
-0.828125 -0.984375 0
-0.8125 -0.984375 0
-0.84375 -0.984375 0
-0.828125 -0.984375 0
-0.84375 -0.96875 0
-0.828125 -0.96875 0
-0.828125 -0.984375 0
-0.8125 -0.984375 0
-0.828125 -0.96875 0
-0.8125 -0.96875 0
-0.875 -0.96875 0
-0.859375 -0.96875 0
-0.875 -0.953125 0
-0.859375 -0.953125 0
-0.859375 -0.96875 0
-0.84375 -0.96875 0
-0.859375 -0.953125 0
-0.84375 -0.953125 0
-0.875 -0.953125 0
-0.859375 -0.953125 0
-0.875 -0.9375 0
-0.859375 -0.9375 0
-0.859375 -0.953125 0
-0.84375 -0.953125 0
-0.859375 -0.9375 0
-0.84375 -0.9375 0
-0.84375 -0.96875 0
-0.828125 -0.96875 0
-0.84375 -0.953125 0
-0.828125 -0.953125 0
-0.828125 -0.96875 0
-0.8125 -0.96875 0
-0.828125 -0.953125 0
-0.8125 -0.953125 0
-0.84375 -0.953125 0
-0.828125 -0.953125 0
-0.84375 -0.9375 0
-0.828125 -0.9375 0
-0.828125 -0.953125 0
-0.8125 -0.953125 0
-0.828125 -0.9375 0
-0.8125 -0.9375 0
-0.8125 -1 0
-0.796875 -1 0
-0.8125 -0.984375 0
-0.796875 -0.984375 0
-0.796875 -1 0
-0.78125 -1 0
-0.796875 -0.984375 0
-0.78125 -0.984375 0
-0.8125 -0.984375 0
-0.796875 -0.984375 0
-0.8125 -0.96875 0
-0.796875 -0.96875 0
-0.796875 -0.984375 0
-0.78125 -0.984375 0
-0.796875 -0.96875 0
-0.78125 -0.96875 0
-0.78125 -1 0
-0.765625 -1 0
-0.78125 -0.984375 0
-0.765625 -0.984375 0
-0.765625 -1 0
-0.75 -1 0
-0.765625 -0.984375 0
-0.75 -0.984375 0
-0.78125 -0.984375 0
-0.765625 -0.984375 0
-0.78125 -0.96875 0
-0.765625 -0.96875 0
-0.765625 -0.984375 0
-0.75 -0.984375 0
-0.765625 -0.96875 0
-0.75 -0.96875 0
-0.8125 -0.96875 0
-0.796875 -0.96875 0
-0.8125 -0.953125 0
-0.796875 -0.953125 0
-0.796875 -0.96875 0
-0.78125 -0.96875 0
-0.796875 -0.953125 0
-0.78125 -0.953125 0
-0.8125 -0.953125 0
-0.796875 -0.953125 0
-0.8125 -0.9375 0
-0.796875 -0.9375 0
-0.796875 -0.953125 0
-0.78125 -0.953125 0
-0.796875 -0.9375 0
-0.78125 -0.9375 0
-0.78125 -0.96875 0
-0.765625 -0.96875 0
-0.78125 -0.953125 0
-0.765625 -0.953125 0
-0.765625 -0.96875 0
-0.75 -0.96875 0
-0.765625 -0.953125 0
-0.75 -0.953125 0
-0.78125 -0.953125 0
-0.765625 -0.953125 0
-0.78125 -0.9375 0
-0.765625 -0.9375 0
-0.765625 -0.953125 0
-0.75 -0.953125 0
-0.765625 -0.9375 0
-0.75 -0.9375 0
-0.875 -0.9375 0
-0.859375 -0.9375 0
-0.875 -0.921875 0
-0.859375 -0.921875 0
-0.859375 -0.9375 0
-0.84375 -0.9375 0
-0.859375 -0.921875 0
-0.84375 -0.921875 0
-0.875 -0.921875 0
-0.859375 -0.921875 0
-0.875 -0.90625 0
-0.859375 -0.90625 0
-0.859375 -0.921875 0
-0.84375 -0.921875 0
-0.859375 -0.90625 0
-0.84375 -0.90625 0
-0.84375 -0.9375 0
-0.828125 -0.9375 0
-0.84375 -0.921875 0
-0.828125 -0.921875 0
-0.828125 -0.9375 0
-0.8125 -0.9375 0
-0.828125 -0.921875 0
-0.8125 -0.921875 0
-0.84375 -0.921875 0
-0.828125 -0.921875 0
-0.84375 -0.90625 0
-0.828125 -0.90625 0
-0.828125 -0.921875 0
-0.8125 -0.921875 0
-0.828125 -0.90625 0
-0.8125 -0.90625 0
-0.875 -0.90625 0
-0.859375 -0.90625 0
-0.875 -0.890625 0
-0.859375 -0.890625 0
-0.859375 -0.90625 0
-0.84375 -0.90625 0
-0.859375 -0.890625 0
-0.84375 -0.890625 0
-0.875 -0.890625 0
-0.859375 -0.890625 0
-0.875 -0.875 0
-0.859375 -0.875 0
-0.859375 -0.890625 0
-0.84375 -0.890625 0
-0.859375 -0.875 0
-0.84375 -0.875 0
-0.84375 -0.90625 0
-0.828125 -0.90625 0
-0.84375 -0.890625 0
-0.828125 -0.890625 0
-0.828125 -0.90625 0
-0.8125 -0.90625 0
-0.828125 -0.890625 0
-0.8125 -0.890625 0
-0.84375 -0.890625 0
-0.828125 -0.890625 0
-0.84375 -0.875 0
-0.828125 -0.875 0
-0.828125 -0.890625 0
-0.8125 -0.890625 0
-0.828125 -0.875 0
-0.8125 -0.875 0
-0.8125 -0.9375 0
-0.796875 -0.9375 0
-0.8125 -0.921875 0
-0.796875 -0.921875 0
-0.796875 -0.9375 0
-0.78125 -0.9375 0
-0.796875 -0.921875 0
-0.78125 -0.921875 0
-0.8125 -0.921875 0
-0.796875 -0.921875 0
-0.8125 -0.90625 0
-0.796875 -0.90625 0
-0.796875 -0.921875 0
-0.78125 -0.921875 0
-0.796875 -0.90625 0
-0.78125 -0.90625 0
-0.78125 -0.9375 0
-0.765625 -0.9375 0
-0.78125 -0.921875 0
-0.765625 -0.921875 0
-0.765625 -0.9375 0
-0.75 -0.9375 0
-0.765625 -0.921875 0
-0.75 -0.921875 0
-0.78125 -0.921875 0
-0.765625 -0.921875 0
-0.78125 -0.90625 0
-0.765625 -0.90625 0
-0.765625 -0.921875 0
-0.75 -0.921875 0
-0.765625 -0.90625 0
-0.75 -0.90625 0
-0.8125 -0.90625 0
-0.796875 -0.90625 0
-0.8125 -0.890625 0
-0.796875 -0.890625 0
-0.796875 -0.90625 0
[...]
  <PointData Scalars="scalars">
    <DataArray type="Float32" Name="U" format="ascii">
0 0 0 4.4725e-05 0 0 4.4725e-05 8.76895e-05 0 4.4725e-05 0 8.03821e-05 4.4725e-05 8.76895e-05 8.03821e-05 0.000158902 0 0 8.76895e-05 0.000129321 0 0 0.000129321 0.000163996 8.76895e-05 0.000129321 0.000158902 0.000232678 0.000129321 0.000163996 0.000232678 0.00029836 0 8.03821e-05 0 0.000111551 8.03821e-05 0.000158902 0.000111551 0.000220937 0 0.000111551 0 0.000121467 0.000111551 0.000220937 0.000121467 0.00023632 0.000158902 0.000232678 0.000220937 0.000318073 0.000232678 0.00029836 0.000318073 0.000404059 0.000220937 0.000318073 0.00023632 0.000348225 0.000318073 0.000404059 0.000348225 0.000434322 0 0 0.000163996 0.000192908 0 0 0.000192908 0.000203615 0.000163996 0.000192908 0.00029836 0.000347904 0.000192908 0.000203615 0.000347904 0.000372349 0 0 0.000203615 0.000195831 0 0 0.000195831 0.000144929 0.000203615 0.000195831 0.000372349 0.000349344 0.000195831 0.000144929 0.000349344 0.000255622 0.00029836 0.000347904 0.000404059 0.000455907 0.000347904 0.000372349 0.000455907 0.000470519 0.000404059 0.000455907 0.000434322 0.000501975 0.000455907 0.000470519 0.000501975 0.000500342 0.000372349 0.000349344 0.000470519 0.000403631 0.000349344 0.000255622 0.000403631 0.000233793 0.000470519 0.000403631 0.000500342 0.000426676 0.000403631 0.000233793 0.000426676 0.000179264 0 0.000121467 0 0.000118614 0.000121467 0.00023632 0.000118614 0.000231815 0 0.000118614 0 0.000101102 0.000118614 0.000231815 0.000101102 0.000201152 0.00023632 0.000348225 0.000231815 0.000329605 0.000348225 0.000434322 0.000329605 0.000404348 0.000231815 0.000329605 0.000201152 0.00027786 0.000329605 0.000404348 0.00027786 0.000342185 0 0.000101102 0 8.31481e-05 0.000101102 0.000201152 8.31481e-05 0.000150202 0 8.31481e-05 0 3.62652e-05 8.31481e-05 0.000150202 3.62652e-05 6.64865e-05 0.000201152 0.00027786 0.000150202 0.000214239 0.00027786 0.000342185 0.000214239 0.000218982 0.000150202 0.000214239 6.64865e-05 7.29655e-05 0.000214239 0.000218982 7.29655e-05 5.0639e-05 0.000434322 0.000501975 0.000404348 0.000430852 0.000501975 0.000500342 0.000430852 0.000390835 0.000404348 0.000430852 0.000342185 0.000340875 0.000430852 0.000390835 0.000340875 0.000278801 0.000500342 0.000426676 0.000390835 0.000223698 0.000426676 0.000179264 0.000223698 -0.000115691 0.000390835 0.000223698 0.000278801 5.29298e-05 0.000223698 -0.000115691 5.29298e-05 -0.000373936 0.000342185 0.000340875 0.000218982 0.000195502 0.000340875 0.000278801 0.000195502 2.8397e-05 0.000218982 0.000195502 5.0639e-05 -4.88991e-05 0.000195502 2.8397e-05 -4.88991e-05 -0.000243415 0.000278801 5.29298e-05 2.8397e-05 -0.00025384 5.29298e-05 -0.000373936 -0.00025384 -0.000860372 2.8397e-05 -0.00025384 -0.000243415 -0.00065079 -0.00025384 -0.000860372 -0.00065079 -0.00132875 0 0 0.000144929 4.47344e-05 0 0 4.47344e-05 -0.000150447 0.000144929 4.47344e-05 0.000255622 3.84694e-05 4.47344e-05 -0.000150447 3.84694e-05 -0.000351843 0 0 -0.000150447 -0.000459913 0 0 -0.000459913 -0.000960473 -0.000150447 -0.000459913 -0.000351843 -0.00101554 -0.000459913 -0.000960473 -0.00101554 -0.00203254 0.000255622 3.84694e-05 0.000233793 -0.000119822 3.84694e-05 -0.000351843 -0.000119822 -0.000722128 0.000233793 -0.000119822 0.000179264 -0.000279597 -0.000119822 -0.000722128 -0.000279597 -0.0011335 -0.000351843 -0.00101554 -0.000722128 -0.0017133 -0.00101554 -0.00203254 -0.0017133 -0.00323179 -0.000722128 -0.0017133 -0.0011335 -0.00248045 -0.0017133 -0.00323179 -0.00248045 -0.00460032 0 0 -0.000960473 -0.00168726 0 0 -0.00168726 -0.00274176 -0.000960473 -0.00168726 -0.00203254 -0.00355094 -0.00168726 -0.00274176 -0.00355094 -0.00565532 0 0 -0.00274176 -0.00414646 0 0 -0.00414646 -0.00597134 -0.00274176 -0.00414646 -0.00565532 -0.00850088 -0.00414646 -0.00597134 -0.00850088 -0.0120938 -0.00203254 -0.00355094 -0.00323179 -0.00548269 -0.00355094 -0.00565532 -0.00548269 -0.00866208 -0.00323179 -0.00548269 -0.00460032 -0.00764433 -0.00548269 -0.00866208 -0.00764433 -0.0119417 -0.00565532 -0.00850088 -0.00866208 -0.0129452 -0.00850088 -0.0120938 -0.0129452 -0.0184279 -0.00866208 -0.0129452 -0.0119417 -0.0176119 -0.0129452 -0.0184279 -0.0176119 -0.0248636 0.000179264 -0.000279597 -0.000115691 -0.000759786 -0.000279597 -0.0011335 -0.000759786 -0.00181011 -0.000115691 -0.000759786 -0.000373936 -0.00118622 -0.000759786 -0.00181011 -0.00118622 -0.00251586 -0.0011335 -0.00248045 -0.00181011 -0.00352367 -0.00248045 -0.00460032 -0.00352367 -0.00608822 -0.00181011 -0.00352367 -0.00251586 -0.00465617 -0.00352367 -0.00608822 -0.00465617 -0.0078723 -0.000373936 -0.00118622 -0.000860372 -0.00180509 -0.00118622 -0.00251586 -0.00180509 -0.00344384 -0.000860372 -0.00180509 -0.00132875 -0.00252973 -0.00180509 -0.00344384 -0.00252973 -0.00439176 -0.00251586 -0.00465617 -0.00344384 -0.0058902 -0.00465617 -0.0078723 -0.0058902 -0.00968936 -0.00344384 -0.0058902 -0.00439176 -0.00737564 -0.0058902 -0.00968936 -0.00737564 -0.0117165 -0.00460032 -0.00764433 -0.00608822 -0.00991144 -0.00764433 -0.0119417 -0.00991144 -0.0152145 -0.00608822 -0.00991144 -0.0078723 -0.0125368 -0.00991144 -0.0152145 -0.0125368 -0.019005 -0.0119417 -0.0176119 -0.0152145 -0.0224209 -0.0176119 -0.0248636 -0.0224209 -0.0315013 -0.0152145 -0.0224209 -0.019005 -0.0275585 -0.0224209 -0.0315013 -0.0275585 -0.0384182 -0.0078723 -0.0125368 -0.00968936 -0.0150732 -0.0125368 -0.019005 -0.0150732 -0.0226926 -0.00968936 -0.0150732 -0.0117165 -0.0180934 -0.0150732 -0.0226926 -0.0180934 -0.0267346 -0.019005 -0.0275585 -0.0226926 -0.0327207 -0.0275585 -0.0384182 -0.0327207 -0.0455132 -0.0226926 -0.0327207 -0.0267346 -0.0383411 -0.0327207 -0.0455132 -0.0383411 -0.0527581 0 3.62652e-05 0 -2.72701e-05 3.62652e-05 6.64865e-05 -2.72701e-05 -5.51885e-05 0 -2.72701e-05 0 -9.35965e-05 -2.72701e-05 -5.51885e-05 -9.35965e-05 -0.000211959 6.64865e-05 7.29655e-05 -5.51885e-05 -0.000124858 7.29655e-05 5.0639e-05 -0.000124858 -0.000211309 -5.51885e-05 -0.000124858 -0.000211959 -0.000330989 -0.000124858 -0.000211309 -0.000330989 -0.000540393 0 -9.35965e-05 0 -0.000158815 -9.35965e-05 -0.000211959 -0.000158815 -0.000328019 0 -0.000158815 0 -0.00021159 -0.000158815 -0.000328019 -0.00021159 -0.000426316 -0.000211959 -0.000330989 -0.000328019 -0.000530745 -0.000330989 -0.000540393 -0.000530745 -0.000779936 -0.000328019 -0.000530745 -0.000426316 -0.000695839 -0.000530745 -0.000779936 -0.000695839 -0.000995202 5.0639e-05 -4.88991e-05 -0.000211309 -0.000409732 -4.88991e-05 -0.000243415 -0.000409732 -0.000697649 -0.000211309 -0.000409732 -0.000540393 -0.000783908 -0.000409732 -0.000697649 -0.000783908 -0.00124448 -0.000243415 -0.00065079 -0.000697649 -0.0012477 -0.00065079 -0.00132875 -0.0012477 -0.00209421 -0.000697649 -0.0012477 -0.00124448 -0.00186545 -0.0012477 -0.00209421 -0.00186545 -0.00297386 -0.000540393 -0.000783908 -0.000779936 -0.00113827 -0.000783908 -0.00124448 -0.00113827 -0.00164024 -0.000779936 -0.00113827 -0.000995202 -0.0014441 -0.00113827 -0.00164024 -0.0014441 -0.00202672 -0.00124448 -0.00186545 -0.00164024 -0.00244122 -0.00186545 -0.00297386 -0.00244122 -0.00363433 -0.00164024 -0.00244122 -0.00202672 -0.00296369 -0.00244122 -0.00363433 -0.00296369 -0.004318 0 -0.00021159 0 -0.000253251 -0.00021159 -0.000426316 -0.000253251 -0.00053144 0 -0.000253251 0 -0.000292944 -0.000253251 -0.00053144 -0.000292944 -0.000603549 -0.000426316 -0.000695839 -0.00053144 -0.000824884 -0.000695839 -0.000995202 -0.000824884 -0.00121451 -0.00053144 -0.000824884 -0.000603549 -0.000952837 -0.000824884 -0.00121451 -0.000952837 -0.00137736 0 -0.000292944 0 -0.000337993 -0.000292944 -0.000603549 -0.000337993 -0.000691045 0 -0.000337993 0 -0.000370216 -0.000337993 -0.000691045 -0.000370216 -0.00075992 -0.000603549 -0.000952837 -0.000691045 -0.0010943 -0.000952837 -0.00137736 -0.0010943 -0.00156787 -0.000691045 -0.0010943 -0.00075992 -0.00119705 -0.0010943 -0.00156787 -0.00119705 -0.00172036 -0.000995202 -0.0014441 -0.00121451 -0.00167966 -0.0014441 -0.00202672 -0.00167966 -0.00239398 -0.00121451 -0.00167966 -0.00137736 -0.00193299 -0.00167966 -0.00239398 -0.00193299 -0.00270661 -0.00202672 -0.00296369 -0.00239398 -0.00337078 -0.00296369 -0.004318 -0.00337078 -0.00494265 -0.00239398 -0.00337078 -0.00270661 -0.003847 -0.00337078 -0.00494265 -0.003847 -0.00554812 -0.00137736 -0.00193299 -0.00156787 -0.00219539 -0.00193299 -0.00270661 -0.00219539 -0.00304457 -0.00156787 -0.00219539 -0.00172036 -0.00239952 -0.00219539 -0.00304457 -0.00239952 -0.00333578 -0.00270661 -0.003847 -0.00304457 -0.00429915 -0.003847 -0.00554812 -0.00429915 -0.00615272 -0.00304457 -0.00429915 -0.00333578 -0.00469977 -0.00429915 -0.00615272 -0.00469977 -0.00673014 -0.00132875 -0.00252973 -0.00209421 -0.00352724 -0.00252973 -0.00439176 -0.00352724 -0.00572247 -0.00209421 -0.00352724 -0.00297386 -0.00457134 -0.00352724 -0.00572247 -0.00457134 -0.00719892 -0.00439176 -0.00737564 -0.00572247 -0.00912789 -0.00737564 -0.0117165 -0.00912789 -0.0141372 -0.00572247 -0.00912789 -0.00719892 -0.0109908 -0.00912789 -0.0141372 -0.0109908 -0.0167402 -0.00297386 -0.00457134 -0.00363433 -0.00555543 -0.00457134 -0.00719892 -0.00555543 -0.00841128 -0.00363433 -0.00555543 -0.004318 -0.00646537 -0.00555543 -0.00841128 -0.00646537 -0.00965167 -0.00719892 -0.0109908 -0.00841128 -0.0128147 -0.0109908 -0.0167402 -0.0128147 -0.0191059 -0.00841128 -0.0128147 -0.00965167 -0.0144612 -0.0128147 -0.0191059 -0.0144612 -0.0214089 -0.0117165 -0.0180934 -0.0141372 -0.0213147 -0.0180934 -0.0267346 -0.0213147 -0.0312102 -0.0141372 -0.0213147 -0.0167402 -0.0247244 -0.0213147 -0.0312102 -0.0247244 -0.0358477 -0.0267346 -0.0383411 -0.0312102 -0.0442041 -0.0383411 -0.0527581 -0.0442041 -0.060604 -0.0312102 -0.0442041 -0.0358477 -0.0502905 -0.0442041 -0.060604 -0.0502905 -0.0685167 -0.0167402 -0.0247244 -0.0191059 -0.0281707 -0.0247244 -0.0358477 -0.0281707 -0.0403237 -0.0191059 -0.0281707 -0.0214089 -0.0312344 -0.0281707 -0.0403237 -0.0312344 -0.0446156 -0.0358477 -0.0502905 -0.0403237 -0.0564172 -0.0502905 -0.0685167 -0.0564172 -0.0762134 -0.0403237 -0.0564172 -0.0446156 -0.0620495 -0.0564172 -0.0762134 -0.0620495 -0.0837986 -0.004318 -0.00646537 -0.00494265 -0.00723595 -0.00646537 -0.00965167 -0.00723595 -0.0108299 -0.00494265 -0.00723595 -0.00554812 -0.0081447 -0.00723595 -0.0108299 -0.0081447 -0.0120182 -0.00965167 -0.0144612 -0.0108299 -0.0160506 -0.0144612 -0.0214089 -0.0160506 -0.0237557 -0.0108299 -0.0160506 -0.0120182 -0.0177872 -0.0160506 -0.0237557 -0.0177872 -0.0260608 -0.00554812 -0.0081447 -0.00615272 -0.0089741 -0.0081447 -0.0120182 -0.0089741 -0.0131904 -0.00615272 -0.0089741 -0.00673014 -0.00979264 -0.0089741 -0.0131904 -0.00979264 -0.0143615 -0.0120182 -0.0177872 -0.0131904 -0.0194355 -0.0177872 -0.0260608 -0.0194355 -0.0284188 -0.0131904 -0.0194355 -0.0143615 -0.0210899 -0.0194355 -0.0284188 -0.0210899 -0.0307258 -0.0214089 -0.0312344 -0.0237557 -0.0344447 -0.0312344 -0.0446156 -0.0344447 -0.0490448 -0.0237557 -0.0344447 -0.0260608 -0.0377134 -0.0344447 -0.0490448 -0.0377134 -0.0533867 -0.0446156 -0.0620495 -0.0490448 -0.0678774 -0.0620495 -0.0837986 -0.0678774 -0.0912669 -0.0490448 -0.0678774 -0.0533867 -0.0737775 -0.0678774 -0.0912669 -0.0737775 -0.0988413 -0.0260608 -0.0377134 -0.0284188 -0.0409658 -0.0377134 -0.0533867 -0.0409658 -0.0578437 -0.0284188 -0.0409658 -0.0307258 -0.0441526 -0.0409658 -0.0578437 -0.0441526 -0.0621468 -0.0533867 -0.0737775 -0.0578437 -0.079595 -0.0737775 -0.0988413 -0.079595 -0.106298 -0.0578437 -0.079595 -0.0621468 -0.0853191 -0.079595 -0.106298 -0.0853191 -0.113643 0 0 -0.00597134 -0.0081463 0 0 -0.0081463 -0.0106104 -0.00597134 -0.0081463 -0.0120938 -0.0164694 -0.0081463 -0.0106104 -0.0164694 -0.0213618 0 0 -0.0106104 -0.0131169 0 0 -0.0131169 -0.0153972 -0.0106104 -0.0131169 -0.0213618 -0.0264407 -0.0131169 -0.0153972 -0.0264407 -0.0309536 -0.0120938 -0.0164694 -0.0184279 -0.0249954 -0.0164694 -0.0213618 -0.0249954 -0.0323653 -0.0184279 -0.0249954 -0.0248636 -0.0335427 -0.0249954 -0.0323653 -0.0335427 -0.043342 -0.0213618 -0.0264407 -0.0323653 -0.0398496 -0.0264407 -0.0309536 -0.0398496 -0.0466069 -0.0323653 -0.0398496 -0.043342 -0.0533888 -0.0398496 -0.0466069 -0.0533888 -0.0623952 0 0 -0.0153972 -0.0170073 0 0 -0.0170073 -0.0174846 -0.0153972 -0.0170073 -0.0309536 -0.0341247 -0.0170073 -0.0174846 -0.0341247 -0.0349415 0 0 -0.0174846 -0.0163658 0 0 -0.0163658 -0.0133317 -0.0174846 -0.0163658 -0.0349415 -0.0326575 -0.0163658 -0.0133317 -0.0326575 -0.0267024 -0.0309536 -0.0341247 -0.0466069 -0.0512985 -0.0341247 -0.0349415 -0.0512985 -0.0526547 -0.0466069 -0.0512985 -0.0623952 -0.0686499 -0.0512985 -0.0526547 -0.0686499 -0.0702204 -0.0349415 -0.0326575 -0.0526547 -0.0491773 -0.0326575 -0.0267024 -0.0491773 -0.0401673 -0.0526547 -0.0491773 -0.0702204 -0.065576 -0.0491773 -0.0401673 -0.065576 -0.0535076 -0.0248636 -0.0335427 -0.0315013 -0.0424864 -0.0335427 -0.043342 -0.0424864 -0.0546156 -0.0315013 -0.0424864 -0.0384182 -0.051348 -0.0424864 -0.0546156 -0.051348 -0.0659099 -0.043342 -0.0533888 -0.0546156 -0.0670555 -0.0533888 -0.0623952 -0.0670555 -0.0780211 -0.0546156 -0.0670555 -0.0659099 -0.0806609 -0.0670555 -0.0780211 -0.0806609 -0.0939333 -0.0384182 -0.051348 -0.0455132 -0.0606809 -0.051348 -0.0659099 -0.0606809 -0.0775737 -0.0455132 -0.0606809 -0.0527581 -0.0701372 -0.0606809 -0.0775737 -0.0701372 -0.0892202 -0.0659099 -0.0806609 -0.0775737 -0.0946503 -0.0806609 -0.0939333 -0.0946503 -0.109713 -0.0775737 -0.0946503 -0.0892202 -0.108752 -0.0946503 -0.109713 -0.108752 -0.125776 -0.0623952 -0.0686499 -0.0780211 -0.0857017 -0.0686499 -0.0702204 -0.0857017 -0.0876328 -0.0780211 -0.0857017 -0.0939333 -0.102869 -0.0857017 -0.0876328 -0.102869 -0.105082 -0.0702204 -0.065576 -0.0876328 -0.0818142 -0.065576 -0.0535076 -0.0818142 -0.0667915 -0.0876328 -0.0818142 -0.105082 -0.0977367 -0.0818142 -0.0667915 -0.0977367 -0.0797601 -0.0939333 -0.102869 -0.109713 -0.120041 -0.102869 -0.105082 -0.120041 -0.12231 -0.109713 -0.120041 -0.125776 -0.137389 -0.120041 -0.12231 -0.137389 -0.139751 -0.105082 -0.0977367 -0.12231 -0.113993 -0.0977367 -0.0797601 -0.113993 -0.0928421 -0.12231 -0.113993 -0.139751 -0.129916 -0.113993 -0.0928421 -0.129916 -0.105962 0 0 -0.0133317 -0.0084486 0 0 -0.0084486 -0.00199445 -0.0133317 -0.0084486 -0.0267024 -0.0170117 -0.0084486 -0.00199445 -0.0170117 -0.00417664 0 0 -0.00199445 0.00528175 0 0 0.00528175 0.012791 -0.00199445 0.00528175 -0.00417664 0.0106492 0.00528175 0.012791 0.0106492 0.0255851 -0.0267024 -0.0170117 -0.0401673 -0.0254641 -0.0170117 -0.00417664 -0.0254641 -0.00625694 -0.0401673 -0.0254641 -0.0535076 -0.0341935 -0.0254641 -0.00625694 -0.0341935 -0.0085148 -0.00417664 0.0106492 -0.00625694 0.0157022 0.0106492 0.0255851 0.0157022 0.0380853 -0.00625694 0.0157022 -0.0085148 0.0207249 0.0157022 0.0380853 0.0207249 0.050616 0 0 0.012791 0.0196159 0 0 0.0196159 0.0253852 0.012791 0.0196159 0.0255851 0.0392633 0.0196159 0.0253852 0.0392633 0.050481 0 0 0.0253852 0.0297596 0 0 0.0297596 0.0331493 0.0253852 0.0297596 0.050481 0.0594302 0.0297596 0.0331493 0.0594302 0.066237 0.0255851 0.0392633 0.0380853 0.0586172 0.0392633 0.050481 0.0586172 0.0758095 0.0380853 0.0586172 0.050616 0.0777718 0.0586172 0.0758095 0.0777718 0.100564 0.050481 0.0594302 0.0758095 0.0889899 0.0594302 0.066237 0.0889899 0.0993638 0.0758095 0.0889899 0.100564 0.118475 0.0889899 0.0993638 0.118475 0.132207 -0.0535076 -0.0341935 -0.0667915 -0.042508 -0.0341935 -0.0085148 -0.042508 -0.0107445 -0.0667915 -0.042508 -0.0797601 -0.0507829 -0.042508 -0.0107445 -0.0507829 -0.0129507 -0.0085148 0.0207249 -0.0107445 0.0257052 0.0207249 0.050616 0.0257052 0.062588 -0.0107445 0.0257052 -0.0129507 0.0303275 0.0257052 0.062588 0.0303275 0.0744045 -0.0797601 -0.0507829 -0.0928421 -0.05942 -0.0507829 -0.0129507 -0.05942 -0.0153378 -0.0928421 -0.05942 -0.105962 -0.0678379 -0.05942 -0.0153378 -0.0678379 -0.0183641 -0.0129507 0.0303275 -0.0153378 0.034525 0.0303275 0.0744045 0.034525 0.0854819 -0.0153378 0.034525 -0.0183641 0.0383737 0.034525 0.0854819 0.0383737 0.0957749 0.050616 0.0777718 0.062588 0.0967169 0.0777718 0.100564 0.0967169 0.124929 0.062588 0.0967169 0.0744045 0.11466 0.0967169 0.124929 0.11466 0.148626 0.100564 0.118475 0.124929 0.147201 0.118475 0.132207 0.147201 0.164205 0.124929 0.147201 0.148626 0.174919 0.147201 0.164205 0.174919 0.195506 0.0744045 0.11466 0.0854819 0.132067 0.11466 0.148626 0.132067 0.171244 0.0854819 0.132067 0.0957749 0.149013 0.132067 0.171244 0.149013 0.193355 0.148626 0.174919 0.171244 0.202168 0.174919 0.195506 0.202168 0.225631 0.171244 0.202168 0.193355 0.228443 0.202168 0.225631 0.228443 0.25524 -0.0527581 -0.0701372 -0.060604 -0.0799058 -0.0701372 -0.0892202 -0.0799058 -0.101407 -0.060604 -0.0799058 -0.0685167 -0.0899352 -0.0799058 -0.101407 -0.0899352 -0.11357 -0.0892202 -0.108752 -0.101407 -0.122847 -0.108752 -0.125776 -0.122847 -0.141876 -0.101407 -0.122847 -0.11357 -0.137216 -0.122847 -0.141876 -0.137216 -0.157706 -0.0685167 -0.0899352 -0.0762134 -0.09975 -0.0899352 -0.11357 -0.09975 -0.125321 -0.0762134 -0.09975 -0.0837986 -0.109183 -0.09975 -0.125321 -0.109183 -0.137008 -0.11357 -0.137216 -0.125321 -0.151076 -0.137216 -0.157706 -0.151076 -0.173146 -0.125321 -0.151076 -0.137008 -0.164382 -0.151076 -0.173146 -0.164382 -0.187997 -0.125776 -0.137389 -0.141876 -0.154348 -0.137389 -0.139751 -0.154348 -0.156944 -0.141876 -0.154348 -0.157706 -0.171267 -0.154348 -0.156944 -0.171267 -0.173361 -0.139751 -0.129916 -0.156944 -0.145572 -0.129916 -0.105962 -0.145572 -0.118731 -0.156944 -0.145572 -0.173361 -0.160716 -0.145572 -0.118731 -0.160716 -0.130544 -0.157706 -0.171267 -0.173146 -0.187558 -0.171267 -0.173361 -0.187558 -0.189436 -0.173146 -0.187558 -0.187997 -0.202872 -0.187558 -0.189436 -0.202872 -0.204606 -0.173361 -0.160716 -0.189436 -0.174977 -0.160716 -0.130544 -0.174977 -0.142008 -0.189436 -0.174977 -0.204606 -0.188566 -0.174977 -0.142008 -0.188566 -0.152687 -0.0837986 -0.109183 -0.0912669 -0.118515 -0.109183 -0.137008 -0.118515 -0.148193 -0.0912669 -0.118515 -0.0988413 -0.12805 -0.118515 -0.148193 -0.12805 -0.159506 -0.137008 -0.164382 -0.148193 -0.177495 -0.164382 -0.187997 -0.177495 -0.202357 -0.148193 -0.177495 -0.159506 -0.190313 -0.177495 -0.202357 -0.190313 -0.216132 -0.0988413 -0.12805 -0.106298 -0.137189 -0.12805 -0.159506 -0.137189 -0.170426 -0.106298 -0.137189 -0.113643 -0.146308 -0.137189 -0.170426 -0.146308 -0.181177 -0.159506 -0.190313 -0.170426 -0.202764 -0.190313 -0.216132 -0.202764 -0.229636 -0.170426 -0.202764 -0.181177 -0.214807 -0.202764 -0.229636 -0.214807 -0.242349 -0.187997 -0.202872 -0.202357 -0.217898 -0.202872 -0.204606 -0.217898 -0.218767 -0.202357 -0.217898 -0.216132 -0.231873 -0.217898 -0.218767 -0.231873 -0.232193 -0.204606 -0.188566 -0.218767 -0.200926 -0.188566 -0.152687 -0.200926 -0.161914 -0.218767 -0.200926 -0.232193 -0.212538 -0.200926 -0.161914 -0.212538 -0.170607 -0.216132 -0.231873 -0.229636 -0.245536 -0.231873 -0.232193 -0.245536 -0.244801 -0.229636 -0.245536 -0.242349 -0.258096 -0.245536 -0.244801 -0.258096 -0.25634 -0.232193 -0.212538 -0.244801 -0.223012 -0.212538 -0.170607 -0.223012 -0.17789 -0.244801 -0.223012 -0.25634 -0.232418 -0.223012 -0.17789 -0.232418 -0.184361 -0.105962 -0.0678379 -0.118731 -0.0760648 -0.0678379 -0.0183641 -0.0760648 -0.0207395 -0.118731 -0.0760648 -0.130544 -0.0837585 -0.0760648 -0.0207395 -0.0837585 -0.0228008 -0.0183641 0.0383737 -0.0207395 0.0421452 0.0383737 0.0957749 0.0421452 0.106174 -0.0207395 0.0421452 -0.0228008 0.0459932 0.0421452 0.106174 0.0459932 0.116195 -0.130544 -0.0837585 -0.142008 -0.0907067 -0.0837585 -0.0228008 -0.0907067 -0.0248147 -0.142008 -0.0907067 -0.152687 -0.0971939 -0.0907067 -0.0248147 -0.0971939 -0.0260387 -0.0228008 0.0459932 -0.0248147 0.0501283 0.0459932 0.116195 0.0501283 0.125965 -0.0248147 0.0501283 -0.0260387 0.0540775 0.0501283 0.125965 0.0540775 0.135461 0.0957749 0.149013 0.106174 0.164833 0.149013 0.193355 0.164833 0.214791 0.106174 0.164833 0.116195 0.180877 0.164833 0.214791 0.180877 0.235504 0.193355 0.