<?xml version="1.0" ?> 
<!-- 
# vtk DataFile Version 3.0
#This file was generated by the deal.II library on 21:42:49 at 2021/4/29
-->
<VTKFile type="UnstructuredGrid" version="0.1" byte_order="LittleEndian">
<UnstructuredGrid>
<Piece NumberOfPoints="65536" NumberOfCells="16384" >
  <Points>
    <DataArray type="Float32" NumberOfComponents="3" format="ascii">
-1 -1 0
-0.984375 -1 0
-1 -0.984375 0
-0.984375 -0.984375 0
-0.984375 -1 0
-0.96875 -1 0
-0.984375 -0.984375 0
-0.96875 -0.984375 0
-1 -0.984375 0
-0.984375 -0.984375 0
-1 -0.96875 0
-0.984375 -0.96875 0
-0.984375 -0.984375 0
-0.96875 -0.984375 0
-0.984375 -0.96875 0
-0.96875 -0.96875 0
-0.96875 -1 0
-0.953125 -1 0
-0.96875 -0.984375 0
-0.953125 -0.984375 0
-0.953125 -1 0
-0.9375 -1 0
-0.953125 -0.984375 0
-0.9375 -0.984375 0
-0.96875 -0.984375 0
-0.953125 -0.984375 0
-0.96875 -0.96875 0
-0.953125 -0.96875 0
-0.953125 -0.984375 0
-0.9375 -0.984375 0
-0.953125 -0.96875 0
-0.9375 -0.96875 0
-1 -0.96875 0
-0.984375 -0.96875 0
-1 -0.953125 0
-0.984375 -0.953125 0
-0.984375 -0.96875 0
-0.96875 -0.96875 0
-0.984375 -0.953125 0
-0.96875 -0.953125 0
-1 -0.953125 0
-0.984375 -0.953125 0
-1 -0.9375 0
-0.984375 -0.9375 0
-0.984375 -0.953125 0
-0.96875 -0.953125 0
-0.984375 -0.9375 0
-0.96875 -0.9375 0
-0.96875 -0.96875 0
-0.953125 -0.96875 0
-0.96875 -0.953125 0
-0.953125 -0.953125 0
-0.953125 -0.96875 0
-0.9375 -0.96875 0
-0.953125 -0.953125 0
-0.9375 -0.953125 0
-0.96875 -0.953125 0
-0.953125 -0.953125 0
-0.96875 -0.9375 0
-0.953125 -0.9375 0
-0.953125 -0.953125 0
-0.9375 -0.953125 0
-0.953125 -0.9375 0
-0.9375 -0.9375 0
-0.9375 -1 0
-0.921875 -1 0
-0.9375 -0.984375 0
-0.921875 -0.984375 0
-0.921875 -1 0
-0.90625 -1 0
-0.921875 -0.984375 0
-0.90625 -0.984375 0
-0.9375 -0.984375 0
-0.921875 -0.984375 0
-0.9375 -0.96875 0
-0.921875 -0.96875 0
-0.921875 -0.984375 0
-0.90625 -0.984375 0
-0.921875 -0.96875 0
-0.90625 -0.96875 0
-0.90625 -1 0
-0.890625 -1 0
-0.90625 -0.984375 0
-0.890625 -0.984375 0
-0.890625 -1 0
-0.875 -1 0
-0.890625 -0.984375 0
-0.875 -0.984375 0
-0.90625 -0.984375 0
-0.890625 -0.984375 0
-0.90625 -0.96875 0
-0.890625 -0.96875 0
-0.890625 -0.984375 0
-0.875 -0.984375 0
-0.890625 -0.96875 0
-0.875 -0.96875 0
-0.9375 -0.96875 0
-0.921875 -0.96875 0
-0.9375 -0.953125 0
-0.921875 -0.953125 0
-0.921875 -0.96875 0
-0.90625 -0.96875 0
-0.921875 -0.953125 0
-0.90625 -0.953125 0
-0.9375 -0.953125 0
-0.921875 -0.953125 0
-0.9375 -0.9375 0
-0.921875 -0.9375 0
-0.921875 -0.953125 0
-0.90625 -0.953125 0
-0.921875 -0.9375 0
-0.90625 -0.9375 0
-0.90625 -0.96875 0
-0.890625 -0.96875 0
-0.90625 -0.953125 0
-0.890625 -0.953125 0
-0.890625 -0.96875 0
-0.875 -0.96875 0
-0.890625 -0.953125 0
-0.875 -0.953125 0
-0.90625 -0.953125 0
-0.890625 -0.953125 0
-0.90625 -0.9375 0
-0.890625 -0.9375 0
-0.890625 -0.953125 0
-0.875 -0.953125 0
-0.890625 -0.9375 0
-0.875 -0.9375 0
-1 -0.9375 0
-0.984375 -0.9375 0
-1 -0.921875 0
-0.984375 -0.921875 0
-0.984375 -0.9375 0
-0.96875 -0.9375 0
-0.984375 -0.921875 0
-0.96875 -0.921875 0
-1 -0.921875 0
-0.984375 -0.921875 0
-1 -0.90625 0
-0.984375 -0.90625 0
-0.984375 -0.921875 0
-0.96875 -0.921875 0
-0.984375 -0.90625 0
-0.96875 -0.90625 0
-0.96875 -0.9375 0
-0.953125 -0.9375 0
-0.96875 -0.921875 0
-0.953125 -0.921875 0
-0.953125 -0.9375 0
-0.9375 -0.9375 0
-0.953125 -0.921875 0
-0.9375 -0.921875 0
-0.96875 -0.921875 0
-0.953125 -0.921875 0
-0.96875 -0.90625 0
-0.953125 -0.90625 0
-0.953125 -0.921875 0
-0.9375 -0.921875 0
-0.953125 -0.90625 0
-0.9375 -0.90625 0
-1 -0.90625 0
-0.984375 -0.90625 0
-1 -0.890625 0
-0.984375 -0.890625 0
-0.984375 -0.90625 0
-0.96875 -0.90625 0
-0.984375 -0.890625 0
-0.96875 -0.890625 0
-1 -0.890625 0
-0.984375 -0.890625 0
-1 -0.875 0
-0.984375 -0.875 0
-0.984375 -0.890625 0
-0.96875 -0.890625 0
-0.984375 -0.875 0
-0.96875 -0.875 0
-0.96875 -0.90625 0
-0.953125 -0.90625 0
-0.96875 -0.890625 0
-0.953125 -0.890625 0
-0.953125 -0.90625 0
-0.9375 -0.90625 0
-0.953125 -0.890625 0
-0.9375 -0.890625 0
-0.96875 -0.890625 0
-0.953125 -0.890625 0
-0.96875 -0.875 0
-0.953125 -0.875 0
-0.953125 -0.890625 0
-0.9375 -0.890625 0
-0.953125 -0.875 0
-0.9375 -0.875 0
-0.9375 -0.9375 0
-0.921875 -0.9375 0
-0.9375 -0.921875 0
-0.921875 -0.921875 0
-0.921875 -0.9375 0
-0.90625 -0.9375 0
-0.921875 -0.921875 0
-0.90625 -0.921875 0
-0.9375 -0.921875 0
-0.921875 -0.921875 0
-0.9375 -0.90625 0
-0.921875 -0.90625 0
-0.921875 -0.921875 0
-0.90625 -0.921875 0
-0.921875 -0.90625 0
-0.90625 -0.90625 0
-0.90625 -0.9375 0
-0.890625 -0.9375 0
-0.90625 -0.921875 0
-0.890625 -0.921875 0
-0.890625 -0.9375 0
-0.875 -0.9375 0
-0.890625 -0.921875 0
-0.875 -0.921875 0
-0.90625 -0.921875 0
-0.890625 -0.921875 0
-0.90625 -0.90625 0
-0.890625 -0.90625 0
-0.890625 -0.921875 0
-0.875 -0.921875 0
-0.890625 -0.90625 0
-0.875 -0.90625 0
-0.9375 -0.90625 0
-0.921875 -0.90625 0
-0.9375 -0.890625 0
-0.921875 -0.890625 0
-0.921875 -0.90625 0
-0.90625 -0.90625 0
-0.921875 -0.890625 0
-0.90625 -0.890625 0
-0.9375 -0.890625 0
-0.921875 -0.890625 0
-0.9375 -0.875 0
-0.921875 -0.875 0
-0.921875 -0.890625 0
-0.90625 -0.890625 0
-0.921875 -0.875 0
-0.90625 -0.875 0
-0.90625 -0.90625 0
-0.890625 -0.90625 0
-0.90625 -0.890625 0
-0.890625 -0.890625 0
-0.890625 -0.90625 0
-0.875 -0.90625 0
-0.890625 -0.890625 0
-0.875 -0.890625 0
-0.90625 -0.890625 0
-0.890625 -0.890625 0
-0.90625 -0.875 0
-0.890625 -0.875 0
-0.890625 -0.890625 0
-0.875 -0.890625 0
-0.890625 -0.875 0
-0.875 -0.875 0
-0.875 -1 0
-0.859375 -1 0
-0.875 -0.984375 0
-0.859375 -0.984375 0
-0.859375 -1 0
-0.84375 -1 0
-0.859375 -0.984375 0
-0.84375 -0.984375 0
-0.875 -0.984375 0
-0.859375 -0.984375 0
-0.875 -0.96875 0
-0.859375 -0.96875 0
-0.859375 -0.984375 0
-0.84375 -0.984375 0
-0.859375 -0.96875 0
-0.84375 -0.96875 0
-0.84375 -1 0
-0.828125 -1 0
-0.84375 -0.984375 0
-0.828125 -0.984375 0
-0.828125 -1 0
-0.8125 -1 0
-0.828125 -0.984375 0
-0.8125 -0.984375 0
-0.84375 -0.984375 0
-0.828125 -0.984375 0
-0.84375 -0.96875 0
-0.828125 -0.96875 0
-0.828125 -0.984375 0
-0.8125 -0.984375 0
-0.828125 -0.96875 0
-0.8125 -0.96875 0
-0.875 -0.96875 0
-0.859375 -0.96875 0
-0.875 -0.953125 0
-0.859375 -0.953125 0
-0.859375 -0.96875 0
-0.84375 -0.96875 0
-0.859375 -0.953125 0
-0.84375 -0.953125 0
-0.875 -0.953125 0
-0.859375 -0.953125 0
-0.875 -0.9375 0
-0.859375 -0.9375 0
-0.859375 -0.953125 0
-0.84375 -0.953125 0
-0.859375 -0.9375 0
-0.84375 -0.9375 0
-0.84375 -0.96875 0
-0.828125 -0.96875 0
-0.84375 -0.953125 0
-0.828125 -0.953125 0
-0.828125 -0.96875 0
-0.8125 -0.96875 0
-0.828125 -0.953125 0
-0.8125 -0.953125 0
-0.84375 -0.953125 0
-0.828125 -0.953125 0
-0.84375 -0.9375 0
-0.828125 -0.9375 0
-0.828125 -0.953125 0
-0.8125 -0.953125 0
-0.828125 -0.9375 0
-0.8125 -0.9375 0
-0.8125 -1 0
-0.796875 -1 0
-0.8125 -0.984375 0
-0.796875 -0.984375 0
-0.796875 -1 0
-0.78125 -1 0
-0.796875 -0.984375 0
-0.78125 -0.984375 0
-0.8125 -0.984375 0
-0.796875 -0.984375 0
-0.8125 -0.96875 0
-0.796875 -0.96875 0
-0.796875 -0.984375 0
-0.78125 -0.984375 0
-0.796875 -0.96875 0
-0.78125 -0.96875 0
-0.78125 -1 0
-0.765625 -1 0
-0.78125 -0.984375 0
-0.765625 -0.984375 0
-0.765625 -1 0
-0.75 -1 0
-0.765625 -0.984375 0
-0.75 -0.984375 0
-0.78125 -0.984375 0
-0.765625 -0.984375 0
-0.78125 -0.96875 0
-0.765625 -0.96875 0
-0.765625 -0.984375 0
-0.75 -0.984375 0
-0.765625 -0.96875 0
-0.75 -0.96875 0
-0.8125 -0.96875 0
-0.796875 -0.96875 0
-0.8125 -0.953125 0
-0.796875 -0.953125 0
-0.796875 -0.96875 0
-0.78125 -0.96875 0
-0.796875 -0.953125 0
-0.78125 -0.953125 0
-0.8125 -0.953125 0
-0.796875 -0.953125 0
-0.8125 -0.9375 0
-0.796875 -0.9375 0
-0.796875 -0.953125 0
-0.78125 -0.953125 0
-0.796875 -0.9375 0
-0.78125 -0.9375 0
-0.78125 -0.96875 0
-0.765625 -0.96875 0
-0.78125 -0.953125 0
-0.765625 -0.953125 0
-0.765625 -0.96875 0
-0.75 -0.96875 0
-0.765625 -0.953125 0
-0.75 -0.953125 0
-0.78125 -0.953125 0
-0.765625 -0.953125 0
-0.78125 -0.9375 0
-0.765625 -0.9375 0
-0.765625 -0.953125 0
-0.75 -0.953125 0
-0.765625 -0.9375 0
-0.75 -0.9375 0
-0.875 -0.9375 0
-0.859375 -0.9375 0
-0.875 -0.921875 0
-0.859375 -0.921875 0
-0.859375 -0.9375 0
-0.84375 -0.9375 0
-0.859375 -0.921875 0
-0.84375 -0.921875 0
-0.875 -0.921875 0
-0.859375 -0.921875 0
-0.875 -0.90625 0
-0.859375 -0.90625 0
-0.859375 -0.921875 0
-0.84375 -0.921875 0
-0.859375 -0.90625 0
-0.84375 -0.90625 0
-0.84375 -0.9375 0
-0.828125 -0.9375 0
-0.84375 -0.921875 0
-0.828125 -0.921875 0
-0.828125 -0.9375 0
-0.8125 -0.9375 0
-0.828125 -0.921875 0
-0.8125 -0.921875 0
-0.84375 -0.921875 0
-0.828125 -0.921875 0
-0.84375 -0.90625 0
-0.828125 -0.90625 0
-0.828125 -0.921875 0
-0.8125 -0.921875 0
-0.828125 -0.90625 0
-0.8125 -0.90625 0
-0.875 -0.90625 0
-0.859375 -0.90625 0
-0.875 -0.890625 0
-0.859375 -0.890625 0
-0.859375 -0.90625 0
-0.84375 -0.90625 0
-0.859375 -0.890625 0
-0.84375 -0.890625 0
-0.875 -0.890625 0
-0.859375 -0.890625 0
-0.875 -0.875 0
-0.859375 -0.875 0
-0.859375 -0.890625 0
-0.84375 -0.890625 0
-0.859375 -0.875 0
-0.84375 -0.875 0
-0.84375 -0.90625 0
-0.828125 -0.90625 0
-0.84375 -0.890625 0
-0.828125 -0.890625 0
-0.828125 -0.90625 0
-0.8125 -0.90625 0
-0.828125 -0.890625 0
-0.8125 -0.890625 0
-0.84375 -0.890625 0
-0.828125 -0.890625 0
-0.84375 -0.875 0
-0.828125 -0.875 0
-0.828125 -0.890625 0
-0.8125 -0.890625 0
-0.828125 -0.875 0
-0.8125 -0.875 0
-0.8125 -0.9375 0
-0.796875 -0.9375 0
-0.8125 -0.921875 0
-0.796875 -0.921875 0
-0.796875 -0.9375 0
-0.78125 -0.9375 0
-0.796875 -0.921875 0
-0.78125 -0.921875 0
-0.8125 -0.921875 0
-0.796875 -0.921875 0
-0.8125 -0.90625 0
-0.796875 -0.90625 0
-0.796875 -0.921875 0
-0.78125 -0.921875 0
-0.796875 -0.90625 0
-0.78125 -0.90625 0
-0.78125 -0.9375 0
-0.765625 -0.9375 0
-0.78125 -0.921875 0
-0.765625 -0.921875 0
-0.765625 -0.9375 0
-0.75 -0.9375 0
-0.765625 -0.921875 0
-0.75 -0.921875 0
-0.78125 -0.921875 0
-0.765625 -0.921875 0
-0.78125 -0.90625 0
-0.765625 -0.90625 0
-0.765625 -0.921875 0
-0.75 -0.921875 0
-0.765625 -0.90625 0
-0.75 -0.90625 0
-0.8125 -0.90625 0
-0.796875 -0.90625 0
-0.8125 -0.890625 0
-0.796875 -0.890625 0
-0.796875 -0.90625 0
[...]
  <PointData Scalars="scalars">
    <DataArray type="Float32" Name="U" format="ascii">
0 0 0 -0.000384673 0 0 -0.000384673 -0.000773733 0 -0.000384673 0 -0.000757122 -0.000384673 -0.000773733 -0.000757122 -0.00151437 0 0 -0.000773733 -0.00117221 0 0 -0.00117221 -0.00158602 -0.000773733 -0.00117221 -0.00151437 -0.00227109 -0.00117221 -0.00158602 -0.00227109 -0.00302451 0 -0.000757122 0 -0.00102258 -0.000757122 -0.00151437 -0.00102258 -0.00203482 0 -0.00102258 0 -0.00116855 -0.00102258 -0.00203482 -0.00116855 -0.00233804 -0.00151437 -0.00227109 -0.00203482 -0.00302627 -0.00227109 -0.00302451 -0.00302627 -0.00398753 -0.00203482 -0.00302627 -0.00233804 -0.0035085 -0.00302627 -0.00398753 -0.0035085 -0.00467812 0 0 -0.00158602 -0.00202125 0 0 -0.00202125 -0.00248128 -0.00158602 -0.00202125 -0.00302451 -0.00376794 -0.00202125 -0.00248128 -0.00376794 -0.00448949 0 0 -0.00248128 -0.00296055 0 0 -0.00296055 -0.0034349 -0.00248128 -0.00296055 -0.00448949 -0.00517371 -0.00296055 -0.0034349 -0.00517371 -0.00580845 -0.00302451 -0.00376794 -0.00398753 -0.00491308 -0.00376794 -0.00448949 -0.00491308 -0.00580509 -0.00398753 -0.00491308 -0.00467812 -0.00584271 -0.00491308 -0.00580509 -0.00584271 -0.00699666 -0.00448949 -0.00517371 -0.00580509 -0.00667579 -0.00517371 -0.00580845 -0.00667579 -0.00754522 -0.00580509 -0.00667579 -0.00699666 -0.00813581 -0.00667579 -0.00754522 -0.00813581 -0.00926088 0 -0.00116855 0 -0.00125042 -0.00116855 -0.00233804 -0.00125042 -0.00250826 0 -0.00125042 0 -0.00133852 -0.00125042 -0.00250826 -0.00133852 -0.00267084 -0.00233804 -0.0035085 -0.00250826 -0.00378216 -0.0035085 -0.00467812 -0.00378216 -0.00508142 -0.00250826 -0.00378216 -0.00267084 -0.00399137 -0.00378216 -0.00508142 -0.00399137 -0.00529742 0 -0.00133852 0 -0.00135553 -0.00133852 -0.00267084 -0.00135553 -0.00271254 0 -0.00135553 0 -0.00123025 -0.00135553 -0.00271254 -0.00123025 -0.00246325 -0.00267084 -0.00399137 -0.00271254 -0.00406921 -0.00399137 -0.00529742 -0.00406921 -0.00541712 -0.00271254 -0.00406921 -0.00246325 -0.00370347 -0.00406921 -0.00541712 -0.00370347 -0.00495698 -0.00467812 -0.00584271 -0.00508142 -0.00641245 -0.00584271 -0.00699666 -0.00641245 -0.00777187 -0.00508142 -0.00641245 -0.00529742 -0.00659372 -0.00641245 -0.00777187 -0.00659372 -0.00789664 -0.00699666 -0.00813581 -0.00777187 -0.00913967 -0.00813581 -0.00926088 -0.00913967 -0.0104798 -0.00777187 -0.00913967 -0.00789664 -0.00923208 -0.00913967 -0.0104798 -0.00923208 -0.0106201 -0.00529742 -0.00659372 -0.00541712 -0.00673938 -0.00659372 -0.00789664 -0.00673938 -0.00801376 -0.00541712 -0.00673938 -0.00495698 -0.00622751 -0.00673938 -0.00801376 -0.00622751 -0.00750745 -0.00789664 -0.00923208 -0.00801376 -0.00922418 -0.00923208 -0.0106201 -0.00922418 -0.0103784 -0.00801376 -0.00922418 -0.00750745 -0.00876799 -0.00922418 -0.0103784 -0.00876799 -0.00996026 0 0 -0.0034349 -0.00385301 0 0 -0.00385301 -0.00414041 -0.0034349 -0.00385301 -0.00580845 -0.00639525 -0.00385301 -0.00414041 -0.00639525 -0.00695338 0 0 -0.00414041 -0.0042301 0 0 -0.0042301 -0.00411899 -0.00414041 -0.0042301 -0.00695338 -0.00750418 -0.0042301 -0.00411899 -0.00750418 -0.00803628 -0.00580845 -0.00639525 -0.00754522 -0.00843408 -0.00639525 -0.00695338 -0.00843408 -0.00935549 -0.00754522 -0.00843408 -0.00926088 -0.0103773 -0.00843408 -0.00935549 -0.0103773 -0.0114888 -0.00695338 -0.00750418 -0.00935549 -0.0103108 -0.00750418 -0.00803628 -0.0103108 -0.011287 -0.00935549 -0.0103108 -0.0114888 -0.0125911 -0.0103108 -0.011287 -0.0125911 -0.0136776 0 0 -0.00411899 -0.00391519 0 0 -0.00391519 -0.00381492 -0.00411899 -0.00391519 -0.00803628 -0.00848427 -0.00391519 -0.00381492 -0.00848427 -0.00876946 0 0 -0.00381492 -0.00398226 0 0 -0.00398226 -0.00440957 -0.00381492 -0.00398226 -0.00876946 -0.00890149 -0.00398226 -0.00440957 -0.00890149 -0.00904002 -0.00803628 -0.00848427 -0.011287 -0.0122457 -0.00848427 -0.00876946 -0.0122457 -0.0131045 -0.011287 -0.0122457 -0.0136776 -0.0147566 -0.0122457 -0.0131045 -0.0147566 -0.0158434 -0.00876946 -0.00890149 -0.0131045 -0.013745 -0.00890149 -0.00904002 -0.013745 -0.0140806 -0.0131045 -0.013745 -0.0158434 -0.0168885 -0.013745 -0.0140806 -0.0168885 -0.0176906 -0.00926088 -0.0103773 -0.0104798 -0.011755 -0.0103773 -0.0114888 -0.011755 -0.0129515 -0.0104798 -0.011755 -0.0106201 -0.0120476 -0.011755 -0.0129515 -0.0120476 -0.0134482 -0.0114888 -0.0125911 -0.0129515 -0.0140905 -0.0125911 -0.0136776 -0.0140905 -0.0152026 -0.0129515 -0.0140905 -0.0134482 -0.0147187 -0.0140905 -0.0152026 -0.0147187 -0.0157803 -0.0106201 -0.0120476 -0.0103784 -0.0115178 -0.0120476 -0.0134482 -0.0115178 -0.0126979 -0.0103784 -0.0115178 -0.00996026 -0.011043 -0.0115178 -0.0126979 -0.011043 -0.0120356 -0.0134482 -0.0147187 -0.0126979 -0.0139388 -0.0147187 -0.0157803 -0.0139388 -0.0151847 -0.0126979 -0.0139388 -0.0120356 -0.0130559 -0.0139388 -0.0151847 -0.0130559 -0.0142745 -0.0136776 -0.0147566 -0.0152026 -0.016277 -0.0147566 -0.0158434 -0.016277 -0.0172486 -0.0152026 -0.016277 -0.0157803 -0.0166407 -0.016277 -0.0172486 -0.0166407 -0.0173896 -0.0158434 -0.0168885 -0.0172486 -0.0180644 -0.0168885 -0.0176906 -0.0180644 -0.0187552 -0.0172486 -0.0180644 -0.0173896 -0.0181304 -0.0180644 -0.0187552 -0.0181304 -0.0189441 -0.0157803 -0.0166407 -0.0151847 -0.0163396 -0.0166407 -0.0173896 -0.0163396 -0.0173757 -0.0151847 -0.0163396 -0.0142745 -0.0157712 -0.0163396 -0.0173757 -0.0157712 -0.0174147 -0.0173896 -0.0181304 -0.0173757 -0.0183923 -0.0181304 -0.0189441 -0.0183923 -0.0195136 -0.0173757 -0.0183923 -0.0174147 -0.0189421 -0.0183923 -0.0195136 -0.0189421 -0.020217 0 -0.00123025 0 -0.00107907 -0.00123025 -0.00246325 -0.00107907 -0.0021533 0 -0.00107907 0 -0.000895053 -0.00107907 -0.0021533 -0.000895053 -0.00180292 -0.00246325 -0.00370347 -0.0021533 -0.00321881 -0.00370347 -0.00495698 -0.00321881 -0.00427582 -0.0021533 -0.00321881 -0.00180292 -0.00273407 -0.00321881 -0.00427582 -0.00273407 -0.00369373 0 -0.000895053 0 -0.0006758 -0.000895053 -0.00180292 -0.0006758 -0.0013654 0 -0.0006758 0 -0.000456035 -0.0006758 -0.0013654 -0.000456035 -0.000915554 -0.00180292 -0.00273407 -0.0013654 -0.00208446 -0.00273407 -0.00369373 -0.00208446 -0.0028507 -0.0013654 -0.00208446 -0.000915554 -0.00138186 -0.00208446 -0.0028507 -0.00138186 -0.00185993 -0.00495698 -0.00622751 -0.00427582 -0.00533493 -0.00622751 -0.00750745 -0.00533493 -0.00642369 -0.00427582 -0.00533493 -0.00369373 -0.00467975 -0.00533493 -0.00642369 -0.00467975 -0.0056851 -0.00750745 -0.00876799 -0.00642369 -0.00758527 -0.00876799 -0.00996026 -0.00758527 -0.00885877 -0.00642369 -0.00758527 -0.0056851 -0.00670962 -0.00758527 -0.00885877 -0.00670962 -0.00777863 -0.00369373 -0.00467975 -0.0028507 -0.00368015 -0.00467975 -0.0056851 -0.00368015 -0.00457815 -0.0028507 -0.00368015 -0.00185993 -0.00236106 -0.00368015 -0.00457815 -0.00236106 -0.00290746 -0.0056851 -0.00670962 -0.00457815 -0.00552846 -0.00670962 -0.00777863 -0.00552846 -0.00649227 -0.00457815 -0.00552846 -0.00290746 -0.00352969 -0.00552846 -0.00649227 -0.00352969 -0.00424962 0 -0.000456035 0 -0.000147349 -0.000456035 -0.000915554 -0.000147349 -0.000304364 0 -0.000147349 0 0.000269551 -0.000147349 -0.000304364 0.000269551 0.000531979 -0.000915554 -0.00138186 -0.000304364 -0.000478235 -0.00138186 -0.00185993 -0.000478235 -0.000670852 -0.000304364 -0.000478235 0.000531979 0.000778706 -0.000478235 -0.000670852 0.000778706 0.00100017 0 0.000269551 0 0.000759377 0.000269551 0.000531979 0.000759377 0.00152093 0 0.000759377 0 0.00128817 0.000759377 0.00152093 0.00128817 0.00257132 0.000531979 0.000778706 0.00152093 0.00228697 0.000778706 0.00100017 0.00228697 0.00305723 0.00152093 0.00228697 0.00257132 0.00384671 0.00228697 0.00305723 0.00384671 0.00511746 -0.00185993 -0.00236106 -0.000670852 -0.000877273 -0.00236106 -0.00290746 -0.000877273 -0.00108946 -0.000670852 -0.000877273 0.00100017 0.00119069 -0.000877273 -0.00108946 0.00119069 0.00135811 -0.00290746 -0.00352969 -0.00108946 -0.00130739 -0.00352969 -0.00424962 -0.00130739 -0.00155049 -0.00108946 -0.00130739 0.00135811 0.00153059 -0.00130739 -0.00155049 0.00153059 0.00174548 0.00100017 0.00119069 0.00305723 0.00382279 0.00119069 0.00135811 0.00382279 0.00456194 0.00305723 0.00382279 0.00511746 0.00639444 0.00382279 0.00456194 0.00639444 0.00768784 0.00135811 0.00153059 0.00456194 0.00525024 0.00153059 0.00174548 0.00525024 0.00588909 0.00456194 0.00525024 0.00768784 0.00898311 0.00525024 0.00588909 0.00898311 0.010221 -0.00996026 -0.011043 -0.00885877 -0.0102411 -0.011043 -0.0120356 -0.0102411 -0.0116578 -0.00885877 -0.0102411 -0.00777863 -0.00895159 -0.0102411 -0.0116578 -0.00895159 -0.0102929 -0.0120356 -0.0130559 -0.0116578 -0.0129914 -0.0130559 -0.0142745 -0.0129914 -0.0141884 -0.0116578 -0.0129914 -0.0102929 -0.0117974 -0.0129914 -0.0141884 -0.0117974 -0.013329 -0.00777863 -0.00895159 -0.00649227 -0.00743232 -0.00895159 -0.0102929 -0.00743232 -0.00836219 -0.00649227 -0.00743232 -0.00424962 -0.00505297 -0.00743232 -0.00836219 -0.00505297 -0.0058747 -0.0102929 -0.0117974 -0.00836219 -0.00938188 -0.0117974 -0.013329 -0.00938188 -0.0106287 -0.00836219 -0.00938188 -0.0058747 -0.00662997 -0.00938188 -0.0106287 -0.00662997 -0.00729651 -0.0142745 -0.0157712 -0.0141884 -0.0153601 -0.0157712 -0.0174147 -0.0153601 -0.0167243 -0.0141884 -0.0153601 -0.013329 -0.0146829 -0.0153601 -0.0167243 -0.0146829 -0.0157993 -0.0174147 -0.0189421 -0.0167243 -0.0183629 -0.0189421 -0.020217 -0.0183629 -0.0200629 -0.0167243 -0.0183629 -0.0157993 -0.0169121 -0.0183629 -0.0200629 -0.0169121 -0.0183298 -0.013329 -0.0146829 -0.0106287 -0.0121178 -0.0146829 -0.0157993 -0.0121178 -0.0136067 -0.0106287 -0.0121178 -0.00729651 -0.00798107 -0.0121178 -0.0136067 -0.00798107 -0.00884044 -0.0157993 -0.0169121 -0.0136067 -0.01473 -0.0169121 -0.0183298 -0.01473 -0.0154062 -0.0136067 -0.01473 -0.00884044 -0.00982909 -0.01473 -0.0154062 -0.00982909 -0.0105696 -0.00424962 -0.00505297 -0.00155049 -0.00185206 -0.00505297 -0.0058747 -0.00185206 -0.00222628 -0.00155049 -0.00185206 0.00174548 0.00201555 -0.00185206 -0.00222628 0.00201555 0.00230119 -0.0058747 -0.00662997 -0.00222628 -0.00262645 -0.00662997 -0.00729651 -0.00262645 -0.00294002 -0.00222628 -0.00262645 0.00230119 0.00253282 -0.00262645 -0.00294002 0.00253282 0.0026793 0.00174548 0.00201555 0.00588909 0.00652566 0.00201555 0.00230119 0.00652566 0.00721629 0.00588909 0.00652566 0.010221 0.0113293 0.00652566 0.00721629 0.0113293 0.0123159 0.00230119 0.00253282 0.00721629 0.00794358 0.00253282 0.0026793 0.00794358 0.00859883 0.00721629 0.00794358 0.0123159 0.0133093 0.00794358 0.00859883 0.0133093 0.0144194 -0.00729651 -0.00798107 -0.00294002 -0.00305981 -0.00798107 -0.00884044 -0.00305981 -0.00302036 -0.00294002 -0.00305981 0.0026793 0.00279409 -0.00305981 -0.00302036 0.00279409 0.00299099 -0.00884044 -0.00982909 -0.00302036 -0.00307121 -0.00982909 -0.0105696 -0.00307121 -0.00346399 -0.00302036 -0.00307121 0.00299099 0.00334898 -0.00307121 -0.00346399 0.00334898 0.00375944 0.0026793 0.00279409 0.00859883 0.00910031 0.00279409 0.00299099 0.00910031 0.00950769 0.00859883 0.00910031 0.0144194 0.0155475 0.00910031 0.00950769 0.0155475 0.0164768 0.00299099 0.00334898 0.00950769 0.00997274 0.00334898 0.00375944 0.00997274 0.0106176 0.00950769 0.00997274 0.0164768 0.0171705 0.00997274 0.0106176 0.0171705 0.0177844 0 0 -0.00440957 -0.00490942 0 0 -0.00490942 -0.00528866 -0.00440957 -0.00490942 -0.00904002 -0.00939165 -0.00490942 -0.00528866 -0.00939165 -0.00997475 0 0 -0.00528866 -0.00552157 0 0 -0.00552157 -0.0056724 -0.00528866 -0.00552157 -0.00997475 -0.0104971 -0.00552157 -0.0056724 -0.0104971 -0.0105457 -0.00904002 -0.00939165 -0.0140806 -0.014143 -0.00939165 -0.00997475 -0.014143 -0.0140665 -0.0140806 -0.014143 -0.0176906 -0.0179514 -0.014143 -0.0140665 -0.0179514 -0.0175481 -0.00997475 -0.0104971 -0.0140665 -0.0139334 -0.0104971 -0.0105457 -0.0139334 -0.0136603 -0.0140665 -0.0139334 -0.0175481 -0.0167818 -0.0139334 -0.0136603 -0.0167818 -0.016216 0 0 -0.0056724 -0.00562395 0 0 -0.00562395 -0.00502747 -0.0056724 -0.00562395 -0.0105457 -0.00993086 -0.00562395 -0.00502747 -0.00993086 -0.00879595 0 0 -0.00502747 -0.00370787 0 0 -0.00370787 -0.00209301 -0.00502747 -0.00370787 -0.00879595 -0.0073904 -0.00370787 -0.00209301 -0.0073904 -0.00586708 -0.0105457 -0.00993086 -0.0136603 -0.0131223 -0.00993086 -0.00879595 -0.0131223 -0.0123749 -0.0136603 -0.0131223 -0.016216 -0.0161436 -0.0131223 -0.0123749 -0.0161436 -0.0163007 -0.00879595 -0.0073904 -0.0123749 -0.0115959 -0.0073904 -0.00586708 -0.0115959 -0.0107657 -0.0123749 -0.0115959 -0.0163007 -0.0162377 -0.0115959 -0.0107657 -0.0162377 -0.0158487 -0.0176906 -0.0179514 -0.0187552 -0.019379 -0.0179514 -0.0175481 -0.019379 -0.0198718 -0.0187552 -0.019379 -0.0189441 -0.0199234 -0.019379 -0.0198718 -0.0199234 -0.0211361 -0.0175481 -0.0167818 -0.0198718 -0.020059 -0.0167818 -0.016216 -0.020059 -0.019925 -0.0198718 -0.020059 -0.0211361 -0.0224351 -0.020059 -0.019925 -0.0224351 -0.0234019 -0.0189441 -0.0199234 -0.0195136 -0.0207413 -0.0199234 -0.0211361 -0.0207413 -0.0220091 -0.0195136 -0.0207413 -0.020217 -0.0213587 -0.0207413 -0.0220091 -0.0213587 -0.0225522 -0.0211361 -0.0224351 -0.0220091 -0.0233705 -0.0224351 -0.0234019 -0.0233705 -0.0249113 -0.0220091 -0.0233705 -0.0225522 -0.0238399 -0.0233705 -0.0249113 -0.0238399 -0.0252144 -0.016216 -0.0161436 -0.019925 -0.0197773 -0.0161436 -0.0163007 -0.0197773 -0.0199546 -0.019925 -0.0197773 -0.0234019 -0.0237454 -0.0197773 -0.0199546 -0.0237454 -0.0237638 -0.0163007 -0.0162377 -0.0199546 -0.0204124 -0.0162377 -0.0158487 -0.0204124 -0.0208035 -0.0199546 -0.0204124 -0.0237638 -0.0240694 -0.0204124 -0.0208035 -0.0240694 -0.0247315 -0.0234019 -0.0237454 -0.0249113 -0.0263844 -0.0237454 -0.0237638 -0.0263844 -0.0272422 -0.0249113 -0.0263844 -0.0252144 -0.0266782 -0.0263844 -0.0272422 -0.0266782 -0.027906 -0.0237638 -0.0240694 -0.0272422 -0.027264 -0.0240694 -0.0247315 -0.027264 -0.0268265 -0.0272422 -0.027264 -0.027906 -0.0281557 -0.027264 -0.0268265 -0.0281557 -0.0270625 0 0 -0.00209301 -0.000999842 0 0 -0.000999842 -0.000861383 -0.00209301 -0.000999842 -0.00586708 -0.0043981 -0.000999842 -0.000861383 -0.0043981 -0.00335651 0 0 -0.000861383 -0.0013261 0 0 -0.0013261 -0.00179286 -0.000861383 -0.0013261 -0.00335651 -0.0031448 -0.0013261 -0.00179286 -0.0031448 -0.00378805 -0.00586708 -0.0043981 -0.0107657 -0.00963601 -0.0043981 -0.00335651 -0.00963601 -0.00822193 -0.0107657 -0.00963601 -0.0158487 -0.0153022 -0.00963601 -0.00822193 -0.0153022 -0.0145574 -0.00335651 -0.0031448 -0.00822193 -0.00711875 -0.0031448 -0.00378805 -0.00711875 -0.00693419 -0.00822193 -0.00711875 -0.0145574 -0.0133283 -0.00711875 -0.00693419 -0.0133283 -0.0115771 0 0 -0.00179286 -0.00216642 0 0 -0.00216642 -0.00274078 -0.00179286 -0.00216642 -0.00378805 -0.00481898 -0.00216642 -0.00274078 -0.00481898 -0.00558487 0 0 -0.00274078 -0.00335383 0 0 -0.00335383 -0.00311268 -0.00274078 -0.00335383 -0.00558487 -0.00553333 -0.00335383 -0.00311268 -0.00553333 -0.00421029 -0.00378805 -0.00481898 -0.00693419 -0.00739596 -0.00481898 -0.00558487 -0.00739596 -0.00740471 -0.00693419 -0.00739596 -0.0115771 -0.00964381 -0.00739596 -0.00740471 -0.00964381 -0.00769463 -0.00558487 -0.00553333 -0.00740471 -0.00609719 -0.00553333 -0.00421029 -0.00609719 -0.0034928 -0.00740471 -0.00609719 -0.00769463 -0.00535328 -0.00609719 -0.0034928 -0.00535328 -0.00209627 -0.0158487 -0.0153022 -0.0208035 -0.0208804 -0.0153022 -0.0145574 -0.0208804 -0.0204697 -0.0208035 -0.0208804 -0.0247315 -0.0250447 -0.0208804 -0.0204697 -0.0250447 -0.0243067 -0.0145574 -0.0133283 -0.0204697 -0.0191099 -0.0133283 -0.0115771 -0.0191099 -0.0162876 -0.0204697 -0.0191099 -0.0243067 -0.0223937 -0.0191099 -0.0162876 -0.0223937 -0.0193552 -0.0247315 -0.0250447 -0.0268265 -0.0262391 -0.0250447 -0.0243067 -0.0262391 -0.0251967 -0.0268265 -0.0262391 -0.0270625 -0.0252669 -0.0262391 -0.0251967 -0.0252669 -0.0235992 -0.0243067 -0.0223937 -0.0251967 -0.0232658 -0.0223937 -0.0193552 -0.0232658 -0.0204056 -0.0251967 -0.0232658 -0.0235992 -0.0219096 -0.0232658 -0.0204056 -0.0219096 -0.0194008 -0.0115771 -0.00964381 -0.0162876 -0.012242 -0.00964381 -0.00769463 -0.012242 -0.00799303 -0.0162876 -0.012242 -0.0193552 -0.0150307 -0.012242 -0.00799303 -0.0150307 -0.00953438 -0.00769463 -0.00535328 -0.00799303 -0.00416338 -0.00535328 -0.00209627 -0.00416338 -0.000178193 -0.00799303 -0.00416338 -0.00953438 -0.00360856 -0.00416338 -0.000178193 -0.00360856 0.00210091 -0.0193552 -0.0150307 -0.0204056 -0.0165105 -0.0150307 -0.00953438 -0.0165105 -0.0110753 -0.0204056 -0.0165105 -0.0194008 -0.0157204 -0.0165105 -0.0110753 -0.0157204 -0.0109292 -0.00953438 -0.00360856 -0.0110753 -0.00409406 -0.00360856 0.00210091 -0.00409406 0.00321884 -0.0110753 -0.00409406 -0.0109292 -0.00494652 -0.00409406 0.00321884 -0.00494652 0.00193956 -0.020217 -0.0213587 -0.0200629 -0.0215194 -0.0213587 -0.0225522 -0.0215194 -0.0226783 -0.0200629 -0.0215194 -0.0183298 -0.0199703 -0.0215194 -0.0226783 -0.0199703 -0.0213004 -0.0225522 -0.0238399 -0.0226783 -0.0236799 -0.0238399 -0.0252144 -0.0236799 -0.0245018 -0.0226783 -0.0236799 -0.0213004 -0.0219198 -0.0236799 -0.0245018 -0.0219198 -0.0219669 -0.0183298 -0.0199703 -0.0154062 -0.0160027 -0.0199703 -0.0213004 -0.0160027 -0.0168317 -0.0154062 -0.0160027 -0.0105696 -0.0107365 -0.0160027 -0.0168317 -0.0107365 -0.0106283 -0.0213004 -0.0219198 -0.0168317 -0.0175941 -0.0219198 -0.0219669 -0.0175941 -0.0177604 -0.0168317 -0.0175941 -0.0106283 -0.0109003 -0.0175941 -0.0177604 -0.0109003 -0.0115254 -0.0252144 -0.0266782 -0.0245018 -0.0250048 -0.0266782 -0.027906 -0.0250048 -0.0252885 -0.0245018 -0.0250048 -0.0219669 -0.0217331 -0.0250048 -0.0252885 -0.0217331 -0.021303 -0.027906 -0.0281557 -0.0252885 -0.0254452 -0.0281557 -0.0270625 -0.0254452 -0.0250036 -0.0252885 -0.0254452 -0.021303 -0.0208365 -0.0254452 -0.0250036 -0.0208365 -0.0204811 -0.0219669 -0.0217331 -0.0177604 -0.0173439 -0.0217331 -0.021303 -0.0173439 -0.016688 -0.0177604 -0.0173439 -0.0115254 -0.0117032 -0.0173439 -0.016688 -0.0117032 -0.0110527 -0.021303 -0.0208365 -0.016688 -0.0158123 -0.0208365 -0.0204811 -0.0158123 -0.0147229 -0.016688 -0.0158123 -0.0110527 -0.00996519 -0.0158123 -0.0147229 -0.00996519 -0.00873996 -0.0105696 -0.0107365 -0.00346399 -0.00401814 -0.0107365 -0.0106283 -0.00401814 -0.00415193 -0.00346399 -0.00401814 0.00375944 0.00390917 -0.00401814 -0.00415193 0.00390917 0.0037166 -0.0106283 -0.0109003 -0.00415193 -0.00373273 -0.0109003 -0.0115254 -0.00373273 -0.00346886 -0.00415193 -0.00373273 0.0037166 0.00373982 -0.00373273 -0.00346886 0.00373982 0.00440942 0.00375944 0.00390917 0.0106176 0.011419 0.00390917 0.0037166 0.011419 0.0120398 0.0106176 0.011419 0.0177844 0.0184034 0.011419 0.0120398 0.0184034 0.019 0.0037166 0.00373982 0.0120398 0.0120571 0.00373982 0.00440942 0.0120571 0.0117743 0.0120398 0.0120571 0.019 0.0193696 0.0120571 0.0117743 0.0193696 0.0190351 -0.0115254 -0.0117032 -0.00346886 -0.00376618 -0.0117032 -0.0110527 -0.00376618 -0.00394056 -0.00346886 -0.00376618 0.00440942 0.00496592 -0.00376618 -0.00394056 0.00496592 0.00447807 -0.0110527 -0.00996519 -0.00394056 -0.00345857 -0.00996519 -0.00873996 -0.00345857 -0.00279682 -0.00394056 -0.00345857 0.00447807 0.00348066 -0.00345857 -0.00279682 0.00348066 0.00291603 0.00440942 0.00496592 0.0117743 0.0119281 0.00496592 0.00447807 0.0119281 0.012054 0.0117743 0.0119281 0.0190351 0.0181362 0.0119281 0.012054 0.0181362 0.0176842 0.00447807 0.00348066 0.012054 0.0109915 0.00348066 0.00291603 0.0109915 0.00916094 0.012054 0.0109915 0.0176842 0.0174826 0.0109915 0.00916094 0.0174826 0.0159936 -0.0270625 -0.0252669 -0.0250036 -0.0233947 -0.0252669 -0.0235992 -0.0233947 -0.020942 -0.0250036 -0.0233947 -0.0204811 -0.0196726 -0.0233947 -0.020942 -0.0196726 -0.0175354 -0.0235992 -0.0219096 -0.020942 -0.0184671 -0.0219096 -0.0194008 -0.0184671 -0.0160193 -0.020942 -0.0184671 -0.0175354 -0.0143509 -0.0184671 -0.0160193 -0.0143509 -0.0114415 -0.0204811 -0.0196726 -0.0147229 -0.0137264 -0.0196726 -0.0175354 -0.0137264 -0.0126233 -0.