<?xml version="1.0" ?> 
<!-- 
# vtk DataFile Version 3.0
#This file was generated by the deal.II library on 21:43:42 at 2021/4/29
-->
<VTKFile type="UnstructuredGrid" version="0.1" byte_order="LittleEndian">
<UnstructuredGrid>
<Piece NumberOfPoints="65536" NumberOfCells="16384" >
  <Points>
    <DataArray type="Float32" NumberOfComponents="3" format="ascii">
-1 -1 0
-0.984375 -1 0
-1 -0.984375 0
-0.984375 -0.984375 0
-0.984375 -1 0
-0.96875 -1 0
-0.984375 -0.984375 0
-0.96875 -0.984375 0
-1 -0.984375 0
-0.984375 -0.984375 0
-1 -0.96875 0
-0.984375 -0.96875 0
-0.984375 -0.984375 0
-0.96875 -0.984375 0
-0.984375 -0.96875 0
-0.96875 -0.96875 0
-0.96875 -1 0
-0.953125 -1 0
-0.96875 -0.984375 0
-0.953125 -0.984375 0
-0.953125 -1 0
-0.9375 -1 0
-0.953125 -0.984375 0
-0.9375 -0.984375 0
-0.96875 -0.984375 0
-0.953125 -0.984375 0
-0.96875 -0.96875 0
-0.953125 -0.96875 0
-0.953125 -0.984375 0
-0.9375 -0.984375 0
-0.953125 -0.96875 0
-0.9375 -0.96875 0
-1 -0.96875 0
-0.984375 -0.96875 0
-1 -0.953125 0
-0.984375 -0.953125 0
-0.984375 -0.96875 0
-0.96875 -0.96875 0
-0.984375 -0.953125 0
-0.96875 -0.953125 0
-1 -0.953125 0
-0.984375 -0.953125 0
-1 -0.9375 0
-0.984375 -0.9375 0
-0.984375 -0.953125 0
-0.96875 -0.953125 0
-0.984375 -0.9375 0
-0.96875 -0.9375 0
-0.96875 -0.96875 0
-0.953125 -0.96875 0
-0.96875 -0.953125 0
-0.953125 -0.953125 0
-0.953125 -0.96875 0
-0.9375 -0.96875 0
-0.953125 -0.953125 0
-0.9375 -0.953125 0
-0.96875 -0.953125 0
-0.953125 -0.953125 0
-0.96875 -0.9375 0
-0.953125 -0.9375 0
-0.953125 -0.953125 0
-0.9375 -0.953125 0
-0.953125 -0.9375 0
-0.9375 -0.9375 0
-0.9375 -1 0
-0.921875 -1 0
-0.9375 -0.984375 0
-0.921875 -0.984375 0
-0.921875 -1 0
-0.90625 -1 0
-0.921875 -0.984375 0
-0.90625 -0.984375 0
-0.9375 -0.984375 0
-0.921875 -0.984375 0
-0.9375 -0.96875 0
-0.921875 -0.96875 0
-0.921875 -0.984375 0
-0.90625 -0.984375 0
-0.921875 -0.96875 0
-0.90625 -0.96875 0
-0.90625 -1 0
-0.890625 -1 0
-0.90625 -0.984375 0
-0.890625 -0.984375 0
-0.890625 -1 0
-0.875 -1 0
-0.890625 -0.984375 0
-0.875 -0.984375 0
-0.90625 -0.984375 0
-0.890625 -0.984375 0
-0.90625 -0.96875 0
-0.890625 -0.96875 0
-0.890625 -0.984375 0
-0.875 -0.984375 0
-0.890625 -0.96875 0
-0.875 -0.96875 0
-0.9375 -0.96875 0
-0.921875 -0.96875 0
-0.9375 -0.953125 0
-0.921875 -0.953125 0
-0.921875 -0.96875 0
-0.90625 -0.96875 0
-0.921875 -0.953125 0
-0.90625 -0.953125 0
-0.9375 -0.953125 0
-0.921875 -0.953125 0
-0.9375 -0.9375 0
-0.921875 -0.9375 0
-0.921875 -0.953125 0
-0.90625 -0.953125 0
-0.921875 -0.9375 0
-0.90625 -0.9375 0
-0.90625 -0.96875 0
-0.890625 -0.96875 0
-0.90625 -0.953125 0
-0.890625 -0.953125 0
-0.890625 -0.96875 0
-0.875 -0.96875 0
-0.890625 -0.953125 0
-0.875 -0.953125 0
-0.90625 -0.953125 0
-0.890625 -0.953125 0
-0.90625 -0.9375 0
-0.890625 -0.9375 0
-0.890625 -0.953125 0
-0.875 -0.953125 0
-0.890625 -0.9375 0
-0.875 -0.9375 0
-1 -0.9375 0
-0.984375 -0.9375 0
-1 -0.921875 0
-0.984375 -0.921875 0
-0.984375 -0.9375 0
-0.96875 -0.9375 0
-0.984375 -0.921875 0
-0.96875 -0.921875 0
-1 -0.921875 0
-0.984375 -0.921875 0
-1 -0.90625 0
-0.984375 -0.90625 0
-0.984375 -0.921875 0
-0.96875 -0.921875 0
-0.984375 -0.90625 0
-0.96875 -0.90625 0
-0.96875 -0.9375 0
-0.953125 -0.9375 0
-0.96875 -0.921875 0
-0.953125 -0.921875 0
-0.953125 -0.9375 0
-0.9375 -0.9375 0
-0.953125 -0.921875 0
-0.9375 -0.921875 0
-0.96875 -0.921875 0
-0.953125 -0.921875 0
-0.96875 -0.90625 0
-0.953125 -0.90625 0
-0.953125 -0.921875 0
-0.9375 -0.921875 0
-0.953125 -0.90625 0
-0.9375 -0.90625 0
-1 -0.90625 0
-0.984375 -0.90625 0
-1 -0.890625 0
-0.984375 -0.890625 0
-0.984375 -0.90625 0
-0.96875 -0.90625 0
-0.984375 -0.890625 0
-0.96875 -0.890625 0
-1 -0.890625 0
-0.984375 -0.890625 0
-1 -0.875 0
-0.984375 -0.875 0
-0.984375 -0.890625 0
-0.96875 -0.890625 0
-0.984375 -0.875 0
-0.96875 -0.875 0
-0.96875 -0.90625 0
-0.953125 -0.90625 0
-0.96875 -0.890625 0
-0.953125 -0.890625 0
-0.953125 -0.90625 0
-0.9375 -0.90625 0
-0.953125 -0.890625 0
-0.9375 -0.890625 0
-0.96875 -0.890625 0
-0.953125 -0.890625 0
-0.96875 -0.875 0
-0.953125 -0.875 0
-0.953125 -0.890625 0
-0.9375 -0.890625 0
-0.953125 -0.875 0
-0.9375 -0.875 0
-0.9375 -0.9375 0
-0.921875 -0.9375 0
-0.9375 -0.921875 0
-0.921875 -0.921875 0
-0.921875 -0.9375 0
-0.90625 -0.9375 0
-0.921875 -0.921875 0
-0.90625 -0.921875 0
-0.9375 -0.921875 0
-0.921875 -0.921875 0
-0.9375 -0.90625 0
-0.921875 -0.90625 0
-0.921875 -0.921875 0
-0.90625 -0.921875 0
-0.921875 -0.90625 0
-0.90625 -0.90625 0
-0.90625 -0.9375 0
-0.890625 -0.9375 0
-0.90625 -0.921875 0
-0.890625 -0.921875 0
-0.890625 -0.9375 0
-0.875 -0.9375 0
-0.890625 -0.921875 0
-0.875 -0.921875 0
-0.90625 -0.921875 0
-0.890625 -0.921875 0
-0.90625 -0.90625 0
-0.890625 -0.90625 0
-0.890625 -0.921875 0
-0.875 -0.921875 0
-0.890625 -0.90625 0
-0.875 -0.90625 0
-0.9375 -0.90625 0
-0.921875 -0.90625 0
-0.9375 -0.890625 0
-0.921875 -0.890625 0
-0.921875 -0.90625 0
-0.90625 -0.90625 0
-0.921875 -0.890625 0
-0.90625 -0.890625 0
-0.9375 -0.890625 0
-0.921875 -0.890625 0
-0.9375 -0.875 0
-0.921875 -0.875 0
-0.921875 -0.890625 0
-0.90625 -0.890625 0
-0.921875 -0.875 0
-0.90625 -0.875 0
-0.90625 -0.90625 0
-0.890625 -0.90625 0
-0.90625 -0.890625 0
-0.890625 -0.890625 0
-0.890625 -0.90625 0
-0.875 -0.90625 0
-0.890625 -0.890625 0
-0.875 -0.890625 0
-0.90625 -0.890625 0
-0.890625 -0.890625 0
-0.90625 -0.875 0
-0.890625 -0.875 0
-0.890625 -0.890625 0
-0.875 -0.890625 0
-0.890625 -0.875 0
-0.875 -0.875 0
-0.875 -1 0
-0.859375 -1 0
-0.875 -0.984375 0
-0.859375 -0.984375 0
-0.859375 -1 0
-0.84375 -1 0
-0.859375 -0.984375 0
-0.84375 -0.984375 0
-0.875 -0.984375 0
-0.859375 -0.984375 0
-0.875 -0.96875 0
-0.859375 -0.96875 0
-0.859375 -0.984375 0
-0.84375 -0.984375 0
-0.859375 -0.96875 0
-0.84375 -0.96875 0
-0.84375 -1 0
-0.828125 -1 0
-0.84375 -0.984375 0
-0.828125 -0.984375 0
-0.828125 -1 0
-0.8125 -1 0
-0.828125 -0.984375 0
-0.8125 -0.984375 0
-0.84375 -0.984375 0
-0.828125 -0.984375 0
-0.84375 -0.96875 0
-0.828125 -0.96875 0
-0.828125 -0.984375 0
-0.8125 -0.984375 0
-0.828125 -0.96875 0
-0.8125 -0.96875 0
-0.875 -0.96875 0
-0.859375 -0.96875 0
-0.875 -0.953125 0
-0.859375 -0.953125 0
-0.859375 -0.96875 0
-0.84375 -0.96875 0
-0.859375 -0.953125 0
-0.84375 -0.953125 0
-0.875 -0.953125 0
-0.859375 -0.953125 0
-0.875 -0.9375 0
-0.859375 -0.9375 0
-0.859375 -0.953125 0
-0.84375 -0.953125 0
-0.859375 -0.9375 0
-0.84375 -0.9375 0
-0.84375 -0.96875 0
-0.828125 -0.96875 0
-0.84375 -0.953125 0
-0.828125 -0.953125 0
-0.828125 -0.96875 0
-0.8125 -0.96875 0
-0.828125 -0.953125 0
-0.8125 -0.953125 0
-0.84375 -0.953125 0
-0.828125 -0.953125 0
-0.84375 -0.9375 0
-0.828125 -0.9375 0
-0.828125 -0.953125 0
-0.8125 -0.953125 0
-0.828125 -0.9375 0
-0.8125 -0.9375 0
-0.8125 -1 0
-0.796875 -1 0
-0.8125 -0.984375 0
-0.796875 -0.984375 0
-0.796875 -1 0
-0.78125 -1 0
-0.796875 -0.984375 0
-0.78125 -0.984375 0
-0.8125 -0.984375 0
-0.796875 -0.984375 0
-0.8125 -0.96875 0
-0.796875 -0.96875 0
-0.796875 -0.984375 0
-0.78125 -0.984375 0
-0.796875 -0.96875 0
-0.78125 -0.96875 0
-0.78125 -1 0
-0.765625 -1 0
-0.78125 -0.984375 0
-0.765625 -0.984375 0
-0.765625 -1 0
-0.75 -1 0
-0.765625 -0.984375 0
-0.75 -0.984375 0
-0.78125 -0.984375 0
-0.765625 -0.984375 0
-0.78125 -0.96875 0
-0.765625 -0.96875 0
-0.765625 -0.984375 0
-0.75 -0.984375 0
-0.765625 -0.96875 0
-0.75 -0.96875 0
-0.8125 -0.96875 0
-0.796875 -0.96875 0
-0.8125 -0.953125 0
-0.796875 -0.953125 0
-0.796875 -0.96875 0
-0.78125 -0.96875 0
-0.796875 -0.953125 0
-0.78125 -0.953125 0
-0.8125 -0.953125 0
-0.796875 -0.953125 0
-0.8125 -0.9375 0
-0.796875 -0.9375 0
-0.796875 -0.953125 0
-0.78125 -0.953125 0
-0.796875 -0.9375 0
-0.78125 -0.9375 0
-0.78125 -0.96875 0
-0.765625 -0.96875 0
-0.78125 -0.953125 0
-0.765625 -0.953125 0
-0.765625 -0.96875 0
-0.75 -0.96875 0
-0.765625 -0.953125 0
-0.75 -0.953125 0
-0.78125 -0.953125 0
-0.765625 -0.953125 0
-0.78125 -0.9375 0
-0.765625 -0.9375 0
-0.765625 -0.953125 0
-0.75 -0.953125 0
-0.765625 -0.9375 0
-0.75 -0.9375 0
-0.875 -0.9375 0
-0.859375 -0.9375 0
-0.875 -0.921875 0
-0.859375 -0.921875 0
-0.859375 -0.9375 0
-0.84375 -0.9375 0
-0.859375 -0.921875 0
-0.84375 -0.921875 0
-0.875 -0.921875 0
-0.859375 -0.921875 0
-0.875 -0.90625 0
-0.859375 -0.90625 0
-0.859375 -0.921875 0
-0.84375 -0.921875 0
-0.859375 -0.90625 0
-0.84375 -0.90625 0
-0.84375 -0.9375 0
-0.828125 -0.9375 0
-0.84375 -0.921875 0
-0.828125 -0.921875 0
-0.828125 -0.9375 0
-0.8125 -0.9375 0
-0.828125 -0.921875 0
-0.8125 -0.921875 0
-0.84375 -0.921875 0
-0.828125 -0.921875 0
-0.84375 -0.90625 0
-0.828125 -0.90625 0
-0.828125 -0.921875 0
-0.8125 -0.921875 0
-0.828125 -0.90625 0
-0.8125 -0.90625 0
-0.875 -0.90625 0
-0.859375 -0.90625 0
-0.875 -0.890625 0
-0.859375 -0.890625 0
-0.859375 -0.90625 0
-0.84375 -0.90625 0
-0.859375 -0.890625 0
-0.84375 -0.890625 0
-0.875 -0.890625 0
-0.859375 -0.890625 0
-0.875 -0.875 0
-0.859375 -0.875 0
-0.859375 -0.890625 0
-0.84375 -0.890625 0
-0.859375 -0.875 0
-0.84375 -0.875 0
-0.84375 -0.90625 0
-0.828125 -0.90625 0
-0.84375 -0.890625 0
-0.828125 -0.890625 0
-0.828125 -0.90625 0
-0.8125 -0.90625 0
-0.828125 -0.890625 0
-0.8125 -0.890625 0
-0.84375 -0.890625 0
-0.828125 -0.890625 0
-0.84375 -0.875 0
-0.828125 -0.875 0
-0.828125 -0.890625 0
-0.8125 -0.890625 0
-0.828125 -0.875 0
-0.8125 -0.875 0
-0.8125 -0.9375 0
-0.796875 -0.9375 0
-0.8125 -0.921875 0
-0.796875 -0.921875 0
-0.796875 -0.9375 0
-0.78125 -0.9375 0
-0.796875 -0.921875 0
-0.78125 -0.921875 0
-0.8125 -0.921875 0
-0.796875 -0.921875 0
-0.8125 -0.90625 0
-0.796875 -0.90625 0
-0.796875 -0.921875 0
-0.78125 -0.921875 0
-0.796875 -0.90625 0
-0.78125 -0.90625 0
-0.78125 -0.9375 0
-0.765625 -0.9375 0
-0.78125 -0.921875 0
-0.765625 -0.921875 0
-0.765625 -0.9375 0
-0.75 -0.9375 0
-0.765625 -0.921875 0
-0.75 -0.921875 0
-0.78125 -0.921875 0
-0.765625 -0.921875 0
-0.78125 -0.90625 0
-0.765625 -0.90625 0
-0.765625 -0.921875 0
-0.75 -0.921875 0
-0.765625 -0.90625 0
-0.75 -0.90625 0
-0.8125 -0.90625 0
-0.796875 -0.90625 0
-0.8125 -0.890625 0
-0.796875 -0.890625 0
-0.796875 -0.90625 0
[...]
  <PointData Scalars="scalars">
    <DataArray type="Float32" Name="U" format="ascii">
0 0 0 -1.39343e-05 0 0 -1.39343e-05 -2.96969e-05 0 -1.39343e-05 0 3.87237e-06 -1.39343e-05 -2.96969e-05 3.87237e-06 9.21127e-06 0 0 -2.96969e-05 -4.86014e-05 0 0 -4.86014e-05 -7.07369e-05 -2.96969e-05 -4.86014e-05 9.21127e-06 1.67569e-05 -4.86014e-05 -7.07369e-05 1.67569e-05 2.55252e-05 0 3.87237e-06 0 -1.12805e-05 3.87237e-06 9.21127e-06 -1.12805e-05 -2.29414e-05 0 -1.12805e-05 0 -9.89086e-06 -1.12805e-05 -2.29414e-05 -9.89086e-06 -1.92773e-05 9.21127e-06 1.67569e-05 -2.29414e-05 -3.47258e-05 1.67569e-05 2.55252e-05 -3.47258e-05 -4.48727e-05 -2.29414e-05 -3.47258e-05 -1.92773e-05 -2.80923e-05 -3.47258e-05 -4.48727e-05 -2.80923e-05 -3.7261e-05 0 0 -7.07369e-05 -9.4077e-05 0 0 -9.4077e-05 -0.000113893 -7.07369e-05 -9.4077e-05 2.55252e-05 3.16056e-05 -9.4077e-05 -0.000113893 3.16056e-05 2.75759e-05 0 0 -0.000113893 -0.000123582 0 0 -0.000123582 -0.000118162 -0.000113893 -0.000123582 2.75759e-05 4.30708e-06 -0.000123582 -0.000118162 4.30708e-06 -4.29741e-05 2.55252e-05 3.16056e-05 -4.48727e-05 -4.91557e-05 3.16056e-05 2.75759e-05 -4.91557e-05 -4.07126e-05 -4.48727e-05 -4.91557e-05 -3.7261e-05 -4.91836e-05 -4.91557e-05 -4.07126e-05 -4.91836e-05 -6.74679e-05 2.75759e-05 4.30708e-06 -4.07126e-05 -1.2428e-05 4.30708e-06 -4.29741e-05 -1.2428e-05 3.65993e-05 -4.07126e-05 -1.2428e-05 -6.74679e-05 -9.4761e-05 -1.2428e-05 3.65993e-05 -9.4761e-05 -0.000128276 0 -9.89086e-06 0 -1.26169e-05 -9.89086e-06 -1.92773e-05 -1.26169e-05 -2.59945e-05 0 -1.26169e-05 0 -1.68392e-05 -1.26169e-05 -2.59945e-05 -1.68392e-05 -3.44754e-05 -1.92773e-05 -2.80923e-05 -2.59945e-05 -4.0618e-05 -2.80923e-05 -3.7261e-05 -4.0618e-05 -5.64866e-05 -2.59945e-05 -4.0618e-05 -3.44754e-05 -5.39086e-05 -4.0618e-05 -5.64866e-05 -5.39086e-05 -7.62372e-05 0 -1.68392e-05 0 -2.84749e-05 -1.68392e-05 -3.44754e-05 -2.84749e-05 -5.46667e-05 0 -2.84749e-05 0 -1.61448e-05 -2.84749e-05 -5.46667e-05 -1.61448e-05 -3.42281e-05 -3.44754e-05 -5.39086e-05 -5.46667e-05 -7.61652e-05 -5.39086e-05 -7.62372e-05 -7.61652e-05 -9.08378e-05 -5.46667e-05 -7.61652e-05 -3.42281e-05 -5.60823e-05 -7.61652e-05 -9.08378e-05 -5.60823e-05 -8.26846e-05 -3.7261e-05 -4.91836e-05 -5.64866e-05 -7.32303e-05 -4.91836e-05 -6.74679e-05 -7.32303e-05 -9.08981e-05 -5.64866e-05 -7.32303e-05 -7.62372e-05 -0.000101905 -7.32303e-05 -9.08981e-05 -0.000101905 -0.000129229 -6.74679e-05 -9.4761e-05 -9.08981e-05 -0.000111658 -9.4761e-05 -0.000128276 -0.000111658 -0.000141319 -9.08981e-05 -0.000111658 -0.000129229 -0.00015293 -0.000111658 -0.000141319 -0.00015293 -0.000165012 -7.62372e-05 -0.000101905 -9.08378e-05 -9.80056e-05 -0.000101905 -0.000129229 -9.80056e-05 -0.000100414 -9.08378e-05 -9.80056e-05 -8.26846e-05 -0.000112954 -9.80056e-05 -0.000100414 -0.000112954 -0.000141819 -0.000129229 -0.00015293 -0.000100414 -0.000105246 -0.00015293 -0.000165012 -0.000105246 -0.000121521 -0.000100414 -0.000105246 -0.000141819 -0.000160467 -0.000105246 -0.000121521 -0.000160467 -0.000160194 0 0 -0.000118162 -0.000100149 0 0 -0.000100149 -8.35468e-05 -0.000118162 -0.000100149 -4.29741e-05 -0.000105232 -0.000100149 -8.35468e-05 -0.000105232 -0.000154067 0 0 -8.35468e-05 -8.78966e-05 0 0 -8.78966e-05 -0.000118141 -8.35468e-05 -8.78966e-05 -0.000154067 -0.000152977 -8.78966e-05 -0.000118141 -0.000152977 -9.10701e-05 -4.29741e-05 -0.000105232 3.65993e-05 9.21197e-05 -0.000105232 -0.000154067 9.21197e-05 0.000121422 3.65993e-05 9.21197e-05 -0.000128276 -0.000155286 9.21197e-05 0.000121422 -0.000155286 -0.00015505 -0.000154067 -0.000152977 0.000121422 8.79763e-05 -0.000152977 -9.10701e-05 8.79763e-05 -1.35133e-05 0.000121422 8.79763e-05 -0.00015505 -0.000113557 8.79763e-05 -1.35133e-05 -0.000113557 -4.6505e-05 0 0 -0.000118141 -0.000143468 0 0 -0.000143468 -0.000107841 -0.000118141 -0.000143468 -9.10701e-05 -1.64146e-05 -0.000143468 -0.000107841 -1.64146e-05 -1.71671e-05 0 0 -0.000107841 9.49046e-06 0 0 9.49046e-06 0.000133777 -0.000107841 9.49046e-06 -1.71671e-05 -0.000126001 9.49046e-06 0.000133777 -0.000126001 -0.000232017 -9.10701e-05 -1.64146e-05 -1.35133e-05 -0.000128405 -1.64146e-05 -1.71671e-05 -0.000128405 -0.000169297 -1.35133e-05 -0.000128405 -4.6505e-05 -6.25696e-06 -0.000128405 -0.000169297 -6.25696e-06 -4.63439e-05 -1.71671e-05 -0.000126001 -0.000169297 -0.000110876 -0.000126001 -0.000232017 -0.000110876 -5.95922e-05 -0.000169297 -0.000110876 -4.63439e-05 -0.000160245 -0.000110876 -5.95922e-05 -0.000160245 -0.000270931 -0.000128276 -0.000155286 -0.000141319 -0.000188017 -0.000155286 -0.00015505 -0.000188017 -0.000254788 -0.000141319 -0.000188017 -0.000165012 -0.000160774 -0.000188017 -0.000254788 -0.000160774 -0.000149601 -0.00015505 -0.000113557 -0.000254788 -0.000328337 -0.000113557 -4.6505e-05 -0.000328337 -0.000376196 -0.000254788 -0.000328337 -0.000149601 -0.000160428 -0.000328337 -0.000376196 -0.000160428 -0.000225093 -0.000165012 -0.000160774 -0.000121521 -0.000151124 -0.000160774 -0.000149601 -0.000151124 -0.000177474 -0.000121521 -0.000151124 -0.000160194 -0.000142685 -0.000151124 -0.000177474 -0.000142685 -0.000128569 -0.000149601 -0.000160428 -0.000177474 -0.000165811 -0.000160428 -0.000225093 -0.000165811 -9.18113e-05 -0.000177474 -0.000165811 -0.000128569 -0.000152209 -0.000165811 -9.18113e-05 -0.000152209 -0.000230087 -4.6505e-05 -6.25696e-06 -0.000376196 -0.000368297 -6.25696e-06 -4.63439e-05 -0.000368297 -0.000314677 -0.000376196 -0.000368297 -0.000225093 -0.000335421 -0.000368297 -0.000314677 -0.000335421 -0.000414441 -4.63439e-05 -0.000160245 -0.000314677 -0.000271164 -0.000160245 -0.000270931 -0.000271164 -0.00027197 -0.000314677 -0.000271164 -0.000414441 -0.00036705 -0.000271164 -0.00027197 -0.00036705 -0.000205387 -0.000225093 -0.000335421 -9.18113e-05 1.05911e-05 -0.000335421 -0.000414441 1.05911e-05 3.91031e-05 -9.18113e-05 1.05911e-05 -0.000230087 -0.000326333 1.05911e-05 3.91031e-05 -0.000326333 -0.00036712 -0.000414441 -0.00036705 3.91031e-05 -9.25014e-05 -0.00036705 -0.000205387 -9.25014e-05 -0.000327626 3.91031e-05 -9.25014e-05 -0.00036712 -0.000329413 -9.25014e-05 -0.000327626 -0.000329413 -0.000309026 0 -1.61448e-05 0 -1.47024e-05 -1.61448e-05 -3.42281e-05 -1.47024e-05 -2.85148e-05 0 -1.47024e-05 0 -4.11481e-05 -1.47024e-05 -2.85148e-05 -4.11481e-05 -8.3194e-05 -3.42281e-05 -5.60823e-05 -2.85148e-05 -4.09696e-05 -5.60823e-05 -8.26846e-05 -4.09696e-05 -5.30049e-05 -2.85148e-05 -4.09696e-05 -8.3194e-05 -0.000126399 -4.09696e-05 -5.30049e-05 -0.000126399 -0.000169705 0 -4.11481e-05 0 -3.83992e-05 -4.11481e-05 -8.3194e-05 -3.83992e-05 -7.66162e-05 0 -3.83992e-05 0 -3.9058e-05 -3.83992e-05 -7.66162e-05 -3.9058e-05 -7.73484e-05 -8.3194e-05 -0.000126399 -7.66162e-05 -0.000115403 -0.000126399 -0.000169705 -0.000115403 -0.000156104 -7.66162e-05 -0.000115403 -7.73484e-05 -0.000112631 -0.000115403 -0.000156104 -0.000112631 -0.000142753 -8.26846e-05 -0.000112954 -5.30049e-05 -6.7845e-05 -0.000112954 -0.000141819 -6.7845e-05 -9.22414e-05 -5.30049e-05 -6.7845e-05 -0.000169705 -0.000210129 -6.7845e-05 -9.22414e-05 -0.000210129 -0.000243216 -0.000141819 -0.000160467 -9.22414e-05 -0.000134534 -0.000160467 -0.000160194 -0.000134534 -0.00020026 -9.22414e-05 -0.000134534 -0.000243216 -0.000265942 -0.000134534 -0.00020026 -0.000265942 -0.000281562 -0.000169705 -0.000210129 -0.000156104 -0.000201903 -0.000210129 -0.000243216 -0.000201903 -0.000254169 -0.000156104 -0.000201903 -0.000142753 -0.000162782 -0.000201903 -0.000254169 -0.000162782 -0.000172476 -0.000243216 -0.000265942 -0.000254169 -0.00031087 -0.000265942 -0.000281562 -0.00031087 -0.000359181 -0.000254169 -0.00031087 -0.000172476 -0.000174113 -0.00031087 -0.000359181 -0.000174113 -0.000184684 0 -3.9058e-05 0 -2.01544e-05 -3.9058e-05 -7.73484e-05 -2.01544e-05 -4.13297e-05 0 -2.01544e-05 0 -5.06707e-05 -2.01544e-05 -4.13297e-05 -5.06707e-05 -0.000100023 -7.73484e-05 -0.000112631 -4.13297e-05 -6.59592e-05 -0.000112631 -0.000142753 -6.59592e-05 -9.66586e-05 -4.13297e-05 -6.59592e-05 -0.000100023 -0.000147441 -6.59592e-05 -9.66586e-05 -0.000147441 -0.000189331 0 -5.06707e-05 0 -5.50525e-05 -5.06707e-05 -0.000100023 -5.50525e-05 -0.000113065 0 -5.50525e-05 0 -5.43648e-05 -5.50525e-05 -0.000113065 -5.43648e-05 -0.000106263 -0.000100023 -0.000147441 -0.000113065 -0.000172279 -0.000147441 -0.000189331 -0.000172279 -0.000239587 -0.000113065 -0.000172279 -0.000106263 -0.000159631 -0.000172279 -0.000239587 -0.000159631 -0.000208297 -0.000142753 -0.000162782 -9.66586e-05 -0.00013846 -0.000162782 -0.000172476 -0.00013846 -0.000191478 -9.66586e-05 -0.00013846 -0.000189331 -0.000225919 -0.00013846 -0.000191478 -0.000225919 -0.000256204 -0.000172476 -0.000174113 -0.000191478 -0.000253991 -0.000174113 -0.000184684 -0.000253991 -0.000310447 -0.000191478 -0.000253991 -0.000256204 -0.00028846 -0.000253991 -0.000310447 -0.00028846 -0.000331547 -0.000189331 -0.000225919 -0.000239587 -0.000305824 -0.000225919 -0.000256204 -0.000305824 -0.000377052 -0.000239587 -0.000305824 -0.000208297 -0.000268116 -0.000305824 -0.000377052 -0.000268116 -0.000332087 -0.000256204 -0.00028846 -0.000377052 -0.000431915 -0.00028846 -0.000331547 -0.000431915 -0.000478428 -0.000377052 -0.000431915 -0.000332087 -0.000431649 -0.000431915 -0.000478428 -0.000431649 -0.000543839 -0.000160194 -0.000142685 -0.00020026 -0.000283089 -0.000142685 -0.000128569 -0.000283089 -0.000363121 -0.00020026 -0.000283089 -0.000281562 -0.000304124 -0.000283089 -0.000363121 -0.000304124 -0.000351578 -0.000128569 -0.000152209 -0.000363121 -0.000417679 -0.000152209 -0.000230087 -0.000417679 -0.000450364 -0.000363121 -0.000417679 -0.000351578 -0.000427567 -0.000417679 -0.000450364 -0.000427567 -0.00049835 -0.000281562 -0.000304124 -0.000359181 -0.000379006 -0.000304124 -0.000351578 -0.000379006 -0.000353276 -0.000359181 -0.000379006 -0.000184684 -0.000221913 -0.000379006 -0.000353276 -0.000221913 -0.00030042 -0.000351578 -0.000427567 -0.000353276 -0.000294901 -0.000427567 -0.00049835 -0.000294901 -0.000256354 -0.000353276 -0.000294901 -0.00030042 -0.000395759 -0.000294901 -0.000256354 -0.000395759 -0.000460999 -0.000230087 -0.000326333 -0.000450364 -0.000499328 -0.000326333 -0.00036712 -0.000499328 -0.000597179 -0.000450364 -0.000499328 -0.00049835 -0.000512434 -0.000499328 -0.000597179 -0.000512434 -0.000460932 -0.00036712 -0.000329413 -0.000597179 -0.000695403 -0.000329413 -0.000309026 -0.000695403 -0.000682232 -0.000597179 -0.000695403 -0.000460932 -0.000433052 -0.000695403 -0.000682232 -0.000433052 -0.000524172 -0.00049835 -0.000512434 -0.000256354 -0.000293979 -0.000512434 -0.000460932 -0.000293979 -0.000397341 -0.000256354 -0.000293979 -0.000460999 -0.000455489 -0.000293979 -0.000397341 -0.000455489 -0.000418973 -0.000460932 -0.000433052 -0.000397341 -0.000466347 -0.000433052 -0.000524172 -0.000466347 -0.000439721 -0.000397341 -0.000466347 -0.000418973 -0.000433829 -0.000466347 -0.000439721 -0.000433829 -0.000514367 -0.000184684 -0.000221913 -0.000310447 -0.000351075 -0.000221913 -0.00030042 -0.000351075 -0.000368018 -0.000310447 -0.000351075 -0.000331547 -0.000392581 -0.000351075 -0.000368018 -0.000392581 -0.000463811 -0.00030042 -0.000395759 -0.000368018 -0.000392882 -0.000395759 -0.000460999 -0.000392882 -0.000450106 -0.000368018 -0.000392882 -0.000463811 -0.000516144 -0.000392882 -0.000450106 -0.000516144 -0.000544534 -0.000331547 -0.000392581 -0.000478428 -0.000503953 -0.000392581 -0.000463811 -0.000503953 -0.000551355 -0.000478428 -0.000503953 -0.000543839 -0.000688585 -0.000503953 -0.000551355 -0.000688585 -0.000785579 -0.000463811 -0.000516144 -0.000551355 -0.000635662 -0.000516144 -0.000544534 -0.000635662 -0.00077577 -0.000551355 -0.000635662 -0.000785579 -0.000844714 -0.000635662 -0.00077577 -0.000844714 -0.000806704 -0.000460999 -0.000455489 -0.000450106 -0.000552325 -0.000455489 -0.000418973 -0.000552325 -0.000628232 -0.000450106 -0.000552325 -0.000544534 -0.000573894 -0.000552325 -0.000628232 -0.000573894 -0.00069742 -0.000418973 -0.000433829 -0.000628232 -0.000647683 -0.000433829 -0.000514367 -0.000647683 -0.000658231 -0.000628232 -0.000647683 -0.00069742 -0.000893546 -0.000647683 -0.000658231 -0.000893546 -0.00107157 -0.000544534 -0.000573894 -0.00077577 -0.000899349 -0.000573894 -0.00069742 -0.000899349 -0.000931522 -0.00077577 -0.000899349 -0.000806704 -0.000800175 -0.000899349 -0.000931522 -0.000800175 -0.000822469 -0.00069742 -0.000893546 -0.000931522 -0.000894308 -0.000893546 -0.00107157 -0.000894308 -0.000894504 -0.000931522 -0.000894308 -0.000822469 -0.000919553 -0.000894308 -0.000894504 -0.000919553 -0.00094422 0 0 0.000133777 0.000140099 0 0 0.000140099 1.71782e-05 0.000133777 0.000140099 -0.000232017 -0.000159337 0.000140099 1.71782e-05 -0.000159337 8.56582e-05 0 0 1.71782e-05 -5.41211e-05 0 0 -5.41211e-05 8.13381e-05 1.71782e-05 -5.41211e-05 8.56582e-05 0.000217083 -5.41211e-05 8.13381e-05 0.000217083 8.25653e-06 -0.000232017 -0.000159337 -5.95922e-05 -0.000161471 -0.000159337 8.56582e-05 -0.000161471 -0.000388782 -5.95922e-05 -0.000161471 -0.000270931 -0.000319441 -0.000161471 -0.000388782 -0.000319441 -0.000351047 8.56582e-05 0.000217083 -0.000388782 -0.000504576 0.000217083 8.25653e-06 -0.000504576 -0.000374097 -0.000388782 -0.000504576 -0.000351047 -0.000435559 -0.000504576 -0.000374097 -0.000435559 -0.000501406 0 0 8.13381e-05 0.000257596 0 0 0.000257596 0.000148306 8.13381e-05 0.000257596 8.25653e-06 -0.000302392 0.000257596 0.000148306 -0.000302392 -0.000284131 0 0 0.000148306 -0.00019102 0 0 -0.00019102 -0.000325107 0.000148306 -0.00019102 -0.000284131 -4.93269e-05 -0.00019102 -0.000325107 -4.93269e-05 -0.000150318 8.25653e-06 -0.000302392 -0.000374097 -0.000217172 -0.000302392 -0.000284131 -0.000217172 -0.000289804 -0.000374097 -0.000217172 -0.000501406 -0.000405164 -0.000217172 -0.000289804 -0.000405164 -0.000210967 -0.000284131 -4.93269e-05 -0.000289804 -0.000406195 -4.93269e-05 -0.000150318 -0.000406195 -0.000225076 -0.000289804 -0.000406195 -0.000210967 -0.000140205 -0.000406195 -0.000225076 -0.000140205 -0.000151834 -0.000270931 -0.000319441 -0.00027197 -0.000256032 -0.000319441 -0.000351047 -0.000256032 -0.000135343 -0.00027197 -0.000256032 -0.000205387 -9.051e-05 -0.000256032 -0.000135343 -9.051e-05 -0.000148307 -0.000351047 -0.000435559 -0.000135343 1.75975e-05 -0.000435559 -0.000501406 1.75975e-05 -1.64053e-05 -0.000135343 1.75975e-05 -0.000148307 -0.000249448 1.75975e-05 -1.64053e-05 -0.000249448 -0.000172198 -0.000205387 -9.051e-05 -0.000327626 -0.000485282 -9.051e-05 -0.000148307 -0.000485282 -0.000485355 -0.000327626 -0.000485282 -0.000309026 -0.000425013 -0.000485282 -0.000485355 -0.000425013 -0.000630691 -0.000148307 -0.000249448 -0.000485355 -0.000489242 -0.000249448 -0.000172198 -0.000489242 -0.000637039 -0.000485355 -0.000489242 -0.000630691 -0.000741591 -0.000489242 -0.000637039 -0.000741591 -0.00074151 -0.000501406 -0.000405164 -1.64053e-05 -0.000252257 -0.000405164 -0.000210967 -0.000252257 -0.000365554 -1.64053e-05 -0.000252257 -0.000172198 -3.54424e-05 -0.000252257 -0.000365554 -3.54424e-05 -0.000214963 -0.000210967 -0.000140205 -0.000365554 -0.000221427 -0.000140205 -0.000151834 -0.000221427 -0.000227926 -0.000365554 -0.000221427 -0.000214963 -0.000659117 -0.000221427 -0.000227926 -0.000659117 -0.000851773 -0.000172198 -3.54424e-05 -0.000637039 -0.000749664 -3.54424e-05 -0.000214963 -0.000749664 -0.000623217 -0.000637039 -0.000749664 -0.00074151 -0.000815453 -0.000749664 -0.000623217 -0.000815453 -0.000927915 -0.000214963 -0.000659117 -0.000623217 -0.000490783 -0.000659117 -0.000851773 -0.000490783 -0.000624559 -0.000623217 -0.000490783 -0.000927915 -0.000767597 -0.000490783 -0.000624559 -0.000767597 -0.000428244 0 0 -0.000325107 -0.000205142 0 0 -0.000205142 -0.000323006 -0.000325107 -0.000205142 -0.000150318 -0.000537125 -0.000205142 -0.000323006 -0.000537125 -0.000504027 0 0 -0.000323006 -0.000684273 0 0 -0.000684273 -0.000562727 -0.000323006 -0.000684273 -0.000504027 -5.53184e-05 -0.000684273 -0.000562727 -5.53184e-05 -1.80707e-05 -0.000150318 -0.000537125 -0.000225076 7.62944e-05 -0.000537125 -0.000504027 7.62944e-05 8.86749e-05 -0.000225076 7.62944e-05 -0.000151834 -2.0565e-05 7.62944e-05 8.86749e-05 -2.0565e-05 6.82018e-05 -0.000504027 -5.53184e-05 8.86749e-05 -3.72618e-05 -5.53184e-05 -1.80707e-05 -3.72618e-05 -1.12809e-05 8.86749e-05 -3.72618e-05 6.82018e-05 -0.000229661 -3.72618e-05 -1.12809e-05 -0.000229661 -0.000550418 0 0 -0.000562727 0.000105271 0 0 0.000105271 0.000430356 -0.000562727 0.000105271 -1.80707e-05 -0.000350723 0.000105271 0.000430356 -0.000350723 -0.000194954 0 0 0.000430356 0.000267412 0 0 0.000267412 0.000324282 0.000430356 0.000267412 -0.000194954 0.00021109 0.000267412 0.000324282 0.00021109 7.21778e-05 -1.80707e-05 -0.000350723 -1.12809e-05 -0.000165801 -0.000350723 -0.000194954 -0.000165801 -0.000626504 -1.12809e-05 -0.000165801 -0.000550418 -0.000413256 -0.000165801 -0.000626504 -0.000413256 -0.000379369 -0.000194954 0.00021109 -0.000626504 -0.00075919 0.00021109 7.21778e-05 -0.00075919 -0.0005518 -0.000626504 -0.00075919 -0.000379369 -0.000895818 -0.00075919 -0.0005518 -0.000895818 -0.00112139 -0.000151834 -2.0565e-05 -0.000227926 -0.000597801 -2.0565e-05 6.82018e-05 -0.000597801 -0.000790543 -0.000227926 -0.000597801 -0.000851773 -0.000742162 -0.000597801 -0.000790543 -0.000742162 -0.00080719 6.82018e-05 -0.000229661 -0.000790543 -0.000533271 -0.000229661 -0.000550418 -0.000533271 -0.000474416 -0.000790543 -0.000533271 -0.00080719 -0.000956594 -0.000533271 -0.000474416 -0.000956594 -0.000729623 -0.000851773 -0.000742162 -0.000624559 -0.000737552 -0.000742162 -0.00080719 -0.000737552 -0.000610439 -0.000624559 -0.000737552 -0.000428244 -0.000404488 -0.000737552 -0.000610439 -0.000404488 -0.000622212 -0.00080719 -0.000956594 -0.000610439 -0.000669974 -0.000956594 -0.000729623 -0.000669974 -0.00098194 -0.000610439 -0.000669974 -0.000622212 -0.000592938 -0.000669974 -0.00098194 -0.000592938 -0.000493327 -0.000550418 -0.000413256 -0.000474416 -0.00077905 -0.000413256 -0.000379369 -0.00077905 -0.000687406 -0.000474416 -0.00077905 -0.000729623 -0.000540729 -0.00077905 -0.000687406 -0.000540729 -0.000794567 -0.000379369 -0.000895818 -0.000687406 -0.000394272 -0.000895818 -0.00112139 -0.000394272 -0.00066867 -0.000687406 -0.000394272 -0.000794567 -0.000661301 -0.000394272 -0.00066867 -0.000661301 -0.000128967 -0.000729623 -0.000540729 -0.00098194 -0.000840876 -0.000540729 -0.000794567 -0.000840876 -0.000412595 -0.00098194 -0.000840876 -0.000493327 -0.000729227 -0.000840876 -0.000412595 -0.000729227 -0.000835614 -0.000794567 -0.000661301 -0.000412595 -0.00058018 -0.000661301 -0.000128967 -0.00058018 -0.000764659 -0.000412595 -0.00058018 -0.000835614 -0.000717637 -0.00058018 -0.000764659 -0.000717637 -0.0010671 -0.000309026 -0.000425013 -0.000682232 -0.000535405 -0.000425013 -0.000630691 -0.000535405 -0.000421406 -0.000682232 -0.000535405 -0.000524172 -0.00067783 -0.000535405 -0.000421406 -0.00067783 -0.000687706 -0.000630691 -0.000741591 -0.000421406 -0.000486843 -0.000741591 -0.00074151 -0.000486843 -0.000592094 -0.000421406 -0.000486843 -0.000687706 -0.000509936 -0.000486843 -0.000592094 -0.000509936 -0.000380749 -0.000524172 -0.00067783 -0.000439721 -0.000405616 -0.00067783 -0.000687706 -0.000405616 -0.000515712 -0.000439721 -0.000405616 -0.000514367 -0.000563887 -0.000405616 -0.000515712 -0.000563887 -0.000542138 -0.000687706 -0.000509936 -0.000515712 -0.000692423 -0.000509936 -0.000380749 -0.000692423 -0.000746896 -0.000515712 -0.000692423 -0.000542138 -0.000625618 -0.000692423 -0.000746896 -0.000625618 -0.000871411 -0.00074151 -0.000815453 -0.000592094 -0.000544186 -0.000815453 -0.000927915 -0.000544186 -0.00050796 -0.000592094 -0.000544186 -0.000380749 -0.000441032 -0.000544186 -0.00050796 -0.000441032 -0.000504714 -0.000927915 -0.000767597 -0.00050796 -0.000723082 -0.000767597 -0.000428244 -0.000723082 -0.000900692 -0.00050796 -0.000723082 -0.000504714 -0.00051178 -0.000723082 -0.000900692 -0.00051178 -0.000715274 -0.000380749 -0.000441032