<?xml version="1.0" ?> 
<!-- 
# vtk DataFile Version 3.0
#This file was generated by the deal.II library on 21:45:33 at 2021/4/29
-->
<VTKFile type="UnstructuredGrid" version="0.1" byte_order="LittleEndian">
<UnstructuredGrid>
<Piece NumberOfPoints="65536" NumberOfCells="16384" >
  <Points>
    <DataArray type="Float32" NumberOfComponents="3" format="ascii">
-1 -1 0
-0.984375 -1 0
-1 -0.984375 0
-0.984375 -0.984375 0
-0.984375 -1 0
-0.96875 -1 0
-0.984375 -0.984375 0
-0.96875 -0.984375 0
-1 -0.984375 0
-0.984375 -0.984375 0
-1 -0.96875 0
-0.984375 -0.96875 0
-0.984375 -0.984375 0
-0.96875 -0.984375 0
-0.984375 -0.96875 0
-0.96875 -0.96875 0
-0.96875 -1 0
-0.953125 -1 0
-0.96875 -0.984375 0
-0.953125 -0.984375 0
-0.953125 -1 0
-0.9375 -1 0
-0.953125 -0.984375 0
-0.9375 -0.984375 0
-0.96875 -0.984375 0
-0.953125 -0.984375 0
-0.96875 -0.96875 0
-0.953125 -0.96875 0
-0.953125 -0.984375 0
-0.9375 -0.984375 0
-0.953125 -0.96875 0
-0.9375 -0.96875 0
-1 -0.96875 0
-0.984375 -0.96875 0
-1 -0.953125 0
-0.984375 -0.953125 0
-0.984375 -0.96875 0
-0.96875 -0.96875 0
-0.984375 -0.953125 0
-0.96875 -0.953125 0
-1 -0.953125 0
-0.984375 -0.953125 0
-1 -0.9375 0
-0.984375 -0.9375 0
-0.984375 -0.953125 0
-0.96875 -0.953125 0
-0.984375 -0.9375 0
-0.96875 -0.9375 0
-0.96875 -0.96875 0
-0.953125 -0.96875 0
-0.96875 -0.953125 0
-0.953125 -0.953125 0
-0.953125 -0.96875 0
-0.9375 -0.96875 0
-0.953125 -0.953125 0
-0.9375 -0.953125 0
-0.96875 -0.953125 0
-0.953125 -0.953125 0
-0.96875 -0.9375 0
-0.953125 -0.9375 0
-0.953125 -0.953125 0
-0.9375 -0.953125 0
-0.953125 -0.9375 0
-0.9375 -0.9375 0
-0.9375 -1 0
-0.921875 -1 0
-0.9375 -0.984375 0
-0.921875 -0.984375 0
-0.921875 -1 0
-0.90625 -1 0
-0.921875 -0.984375 0
-0.90625 -0.984375 0
-0.9375 -0.984375 0
-0.921875 -0.984375 0
-0.9375 -0.96875 0
-0.921875 -0.96875 0
-0.921875 -0.984375 0
-0.90625 -0.984375 0
-0.921875 -0.96875 0
-0.90625 -0.96875 0
-0.90625 -1 0
-0.890625 -1 0
-0.90625 -0.984375 0
-0.890625 -0.984375 0
-0.890625 -1 0
-0.875 -1 0
-0.890625 -0.984375 0
-0.875 -0.984375 0
-0.90625 -0.984375 0
-0.890625 -0.984375 0
-0.90625 -0.96875 0
-0.890625 -0.96875 0
-0.890625 -0.984375 0
-0.875 -0.984375 0
-0.890625 -0.96875 0
-0.875 -0.96875 0
-0.9375 -0.96875 0
-0.921875 -0.96875 0
-0.9375 -0.953125 0
-0.921875 -0.953125 0
-0.921875 -0.96875 0
-0.90625 -0.96875 0
-0.921875 -0.953125 0
-0.90625 -0.953125 0
-0.9375 -0.953125 0
-0.921875 -0.953125 0
-0.9375 -0.9375 0
-0.921875 -0.9375 0
-0.921875 -0.953125 0
-0.90625 -0.953125 0
-0.921875 -0.9375 0
-0.90625 -0.9375 0
-0.90625 -0.96875 0
-0.890625 -0.96875 0
-0.90625 -0.953125 0
-0.890625 -0.953125 0
-0.890625 -0.96875 0
-0.875 -0.96875 0
-0.890625 -0.953125 0
-0.875 -0.953125 0
-0.90625 -0.953125 0
-0.890625 -0.953125 0
-0.90625 -0.9375 0
-0.890625 -0.9375 0
-0.890625 -0.953125 0
-0.875 -0.953125 0
-0.890625 -0.9375 0
-0.875 -0.9375 0
-1 -0.9375 0
-0.984375 -0.9375 0
-1 -0.921875 0
-0.984375 -0.921875 0
-0.984375 -0.9375 0
-0.96875 -0.9375 0
-0.984375 -0.921875 0
-0.96875 -0.921875 0
-1 -0.921875 0
-0.984375 -0.921875 0
-1 -0.90625 0
-0.984375 -0.90625 0
-0.984375 -0.921875 0
-0.96875 -0.921875 0
-0.984375 -0.90625 0
-0.96875 -0.90625 0
-0.96875 -0.9375 0
-0.953125 -0.9375 0
-0.96875 -0.921875 0
-0.953125 -0.921875 0
-0.953125 -0.9375 0
-0.9375 -0.9375 0
-0.953125 -0.921875 0
-0.9375 -0.921875 0
-0.96875 -0.921875 0
-0.953125 -0.921875 0
-0.96875 -0.90625 0
-0.953125 -0.90625 0
-0.953125 -0.921875 0
-0.9375 -0.921875 0
-0.953125 -0.90625 0
-0.9375 -0.90625 0
-1 -0.90625 0
-0.984375 -0.90625 0
-1 -0.890625 0
-0.984375 -0.890625 0
-0.984375 -0.90625 0
-0.96875 -0.90625 0
-0.984375 -0.890625 0
-0.96875 -0.890625 0
-1 -0.890625 0
-0.984375 -0.890625 0
-1 -0.875 0
-0.984375 -0.875 0
-0.984375 -0.890625 0
-0.96875 -0.890625 0
-0.984375 -0.875 0
-0.96875 -0.875 0
-0.96875 -0.90625 0
-0.953125 -0.90625 0
-0.96875 -0.890625 0
-0.953125 -0.890625 0
-0.953125 -0.90625 0
-0.9375 -0.90625 0
-0.953125 -0.890625 0
-0.9375 -0.890625 0
-0.96875 -0.890625 0
-0.953125 -0.890625 0
-0.96875 -0.875 0
-0.953125 -0.875 0
-0.953125 -0.890625 0
-0.9375 -0.890625 0
-0.953125 -0.875 0
-0.9375 -0.875 0
-0.9375 -0.9375 0
-0.921875 -0.9375 0
-0.9375 -0.921875 0
-0.921875 -0.921875 0
-0.921875 -0.9375 0
-0.90625 -0.9375 0
-0.921875 -0.921875 0
-0.90625 -0.921875 0
-0.9375 -0.921875 0
-0.921875 -0.921875 0
-0.9375 -0.90625 0
-0.921875 -0.90625 0
-0.921875 -0.921875 0
-0.90625 -0.921875 0
-0.921875 -0.90625 0
-0.90625 -0.90625 0
-0.90625 -0.9375 0
-0.890625 -0.9375 0
-0.90625 -0.921875 0
-0.890625 -0.921875 0
-0.890625 -0.9375 0
-0.875 -0.9375 0
-0.890625 -0.921875 0
-0.875 -0.921875 0
-0.90625 -0.921875 0
-0.890625 -0.921875 0
-0.90625 -0.90625 0
-0.890625 -0.90625 0
-0.890625 -0.921875 0
-0.875 -0.921875 0
-0.890625 -0.90625 0
-0.875 -0.90625 0
-0.9375 -0.90625 0
-0.921875 -0.90625 0
-0.9375 -0.890625 0
-0.921875 -0.890625 0
-0.921875 -0.90625 0
-0.90625 -0.90625 0
-0.921875 -0.890625 0
-0.90625 -0.890625 0
-0.9375 -0.890625 0
-0.921875 -0.890625 0
-0.9375 -0.875 0
-0.921875 -0.875 0
-0.921875 -0.890625 0
-0.90625 -0.890625 0
-0.921875 -0.875 0
-0.90625 -0.875 0
-0.90625 -0.90625 0
-0.890625 -0.90625 0
-0.90625 -0.890625 0
-0.890625 -0.890625 0
-0.890625 -0.90625 0
-0.875 -0.90625 0
-0.890625 -0.890625 0
-0.875 -0.890625 0
-0.90625 -0.890625 0
-0.890625 -0.890625 0
-0.90625 -0.875 0
-0.890625 -0.875 0
-0.890625 -0.890625 0
-0.875 -0.890625 0
-0.890625 -0.875 0
-0.875 -0.875 0
-0.875 -1 0
-0.859375 -1 0
-0.875 -0.984375 0
-0.859375 -0.984375 0
-0.859375 -1 0
-0.84375 -1 0
-0.859375 -0.984375 0
-0.84375 -0.984375 0
-0.875 -0.984375 0
-0.859375 -0.984375 0
-0.875 -0.96875 0
-0.859375 -0.96875 0
-0.859375 -0.984375 0
-0.84375 -0.984375 0
-0.859375 -0.96875 0
-0.84375 -0.96875 0
-0.84375 -1 0
-0.828125 -1 0
-0.84375 -0.984375 0
-0.828125 -0.984375 0
-0.828125 -1 0
-0.8125 -1 0
-0.828125 -0.984375 0
-0.8125 -0.984375 0
-0.84375 -0.984375 0
-0.828125 -0.984375 0
-0.84375 -0.96875 0
-0.828125 -0.96875 0
-0.828125 -0.984375 0
-0.8125 -0.984375 0
-0.828125 -0.96875 0
-0.8125 -0.96875 0
-0.875 -0.96875 0
-0.859375 -0.96875 0
-0.875 -0.953125 0
-0.859375 -0.953125 0
-0.859375 -0.96875 0
-0.84375 -0.96875 0
-0.859375 -0.953125 0
-0.84375 -0.953125 0
-0.875 -0.953125 0
-0.859375 -0.953125 0
-0.875 -0.9375 0
-0.859375 -0.9375 0
-0.859375 -0.953125 0
-0.84375 -0.953125 0
-0.859375 -0.9375 0
-0.84375 -0.9375 0
-0.84375 -0.96875 0
-0.828125 -0.96875 0
-0.84375 -0.953125 0
-0.828125 -0.953125 0
-0.828125 -0.96875 0
-0.8125 -0.96875 0
-0.828125 -0.953125 0
-0.8125 -0.953125 0
-0.84375 -0.953125 0
-0.828125 -0.953125 0
-0.84375 -0.9375 0
-0.828125 -0.9375 0
-0.828125 -0.953125 0
-0.8125 -0.953125 0
-0.828125 -0.9375 0
-0.8125 -0.9375 0
-0.8125 -1 0
-0.796875 -1 0
-0.8125 -0.984375 0
-0.796875 -0.984375 0
-0.796875 -1 0
-0.78125 -1 0
-0.796875 -0.984375 0
-0.78125 -0.984375 0
-0.8125 -0.984375 0
-0.796875 -0.984375 0
-0.8125 -0.96875 0
-0.796875 -0.96875 0
-0.796875 -0.984375 0
-0.78125 -0.984375 0
-0.796875 -0.96875 0
-0.78125 -0.96875 0
-0.78125 -1 0
-0.765625 -1 0
-0.78125 -0.984375 0
-0.765625 -0.984375 0
-0.765625 -1 0
-0.75 -1 0
-0.765625 -0.984375 0
-0.75 -0.984375 0
-0.78125 -0.984375 0
-0.765625 -0.984375 0
-0.78125 -0.96875 0
-0.765625 -0.96875 0
-0.765625 -0.984375 0
-0.75 -0.984375 0
-0.765625 -0.96875 0
-0.75 -0.96875 0
-0.8125 -0.96875 0
-0.796875 -0.96875 0
-0.8125 -0.953125 0
-0.796875 -0.953125 0
-0.796875 -0.96875 0
-0.78125 -0.96875 0
-0.796875 -0.953125 0
-0.78125 -0.953125 0
-0.8125 -0.953125 0
-0.796875 -0.953125 0
-0.8125 -0.9375 0
-0.796875 -0.9375 0
-0.796875 -0.953125 0
-0.78125 -0.953125 0
-0.796875 -0.9375 0
-0.78125 -0.9375 0
-0.78125 -0.96875 0
-0.765625 -0.96875 0
-0.78125 -0.953125 0
-0.765625 -0.953125 0
-0.765625 -0.96875 0
-0.75 -0.96875 0
-0.765625 -0.953125 0
-0.75 -0.953125 0
-0.78125 -0.953125 0
-0.765625 -0.953125 0
-0.78125 -0.9375 0
-0.765625 -0.9375 0
-0.765625 -0.953125 0
-0.75 -0.953125 0
-0.765625 -0.9375 0
-0.75 -0.9375 0
-0.875 -0.9375 0
-0.859375 -0.9375 0
-0.875 -0.921875 0
-0.859375 -0.921875 0
-0.859375 -0.9375 0
-0.84375 -0.9375 0
-0.859375 -0.921875 0
-0.84375 -0.921875 0
-0.875 -0.921875 0
-0.859375 -0.921875 0
-0.875 -0.90625 0
-0.859375 -0.90625 0
-0.859375 -0.921875 0
-0.84375 -0.921875 0
-0.859375 -0.90625 0
-0.84375 -0.90625 0
-0.84375 -0.9375 0
-0.828125 -0.9375 0
-0.84375 -0.921875 0
-0.828125 -0.921875 0
-0.828125 -0.9375 0
-0.8125 -0.9375 0
-0.828125 -0.921875 0
-0.8125 -0.921875 0
-0.84375 -0.921875 0
-0.828125 -0.921875 0
-0.84375 -0.90625 0
-0.828125 -0.90625 0
-0.828125 -0.921875 0
-0.8125 -0.921875 0
-0.828125 -0.90625 0
-0.8125 -0.90625 0
-0.875 -0.90625 0
-0.859375 -0.90625 0
-0.875 -0.890625 0
-0.859375 -0.890625 0
-0.859375 -0.90625 0
-0.84375 -0.90625 0
-0.859375 -0.890625 0
-0.84375 -0.890625 0
-0.875 -0.890625 0
-0.859375 -0.890625 0
-0.875 -0.875 0
-0.859375 -0.875 0
-0.859375 -0.890625 0
-0.84375 -0.890625 0
-0.859375 -0.875 0
-0.84375 -0.875 0
-0.84375 -0.90625 0
-0.828125 -0.90625 0
-0.84375 -0.890625 0
-0.828125 -0.890625 0
-0.828125 -0.90625 0
-0.8125 -0.90625 0
-0.828125 -0.890625 0
-0.8125 -0.890625 0
-0.84375 -0.890625 0
-0.828125 -0.890625 0
-0.84375 -0.875 0
-0.828125 -0.875 0
-0.828125 -0.890625 0
-0.8125 -0.890625 0
-0.828125 -0.875 0
-0.8125 -0.875 0
-0.8125 -0.9375 0
-0.796875 -0.9375 0
-0.8125 -0.921875 0
-0.796875 -0.921875 0
-0.796875 -0.9375 0
-0.78125 -0.9375 0
-0.796875 -0.921875 0
-0.78125 -0.921875 0
-0.8125 -0.921875 0
-0.796875 -0.921875 0
-0.8125 -0.90625 0
-0.796875 -0.90625 0
-0.796875 -0.921875 0
-0.78125 -0.921875 0
-0.796875 -0.90625 0
-0.78125 -0.90625 0
-0.78125 -0.9375 0
-0.765625 -0.9375 0
-0.78125 -0.921875 0
-0.765625 -0.921875 0
-0.765625 -0.9375 0
-0.75 -0.9375 0
-0.765625 -0.921875 0
-0.75 -0.921875 0
-0.78125 -0.921875 0
-0.765625 -0.921875 0
-0.78125 -0.90625 0
-0.765625 -0.90625 0
-0.765625 -0.921875 0
-0.75 -0.921875 0
-0.765625 -0.90625 0
-0.75 -0.90625 0
-0.8125 -0.90625 0
-0.796875 -0.90625 0
-0.8125 -0.890625 0
-0.796875 -0.890625 0
-0.796875 -0.90625 0
[...]
  <PointData Scalars="scalars">
    <DataArray type="Float32" Name="U" format="ascii">
0 0 0 -0.000110815 0 0 -0.000110815 -0.000221649 0 -0.000110815 0 -0.000220146 -0.000110815 -0.000221649 -0.000220146 -0.000441315 0 0 -0.000221649 -0.000334315 0 0 -0.000334315 -0.000447142 -0.000221649 -0.000334315 -0.000441315 -0.000661045 -0.000334315 -0.000447142 -0.000661045 -0.000883722 0 -0.000220146 0 -0.00031306 -0.000220146 -0.000441315 -0.00031306 -0.000626208 0 -0.00031306 0 -0.000393254 -0.00031306 -0.000626208 -0.000393254 -0.000785287 -0.000441315 -0.000661045 -0.000626208 -0.000942298 -0.000661045 -0.000883722 -0.000942298 -0.00125871 -0.000626208 -0.000942298 -0.000785287 -0.00117803 -0.000942298 -0.00125871 -0.00117803 -0.00156696 0 0 -0.000447142 -0.000563652 0 0 -0.000563652 -0.000680464 -0.000447142 -0.000563652 -0.000883722 -0.00110333 -0.000563652 -0.000680464 -0.00110333 -0.00132809 0 0 -0.000680464 -0.000802199 0 0 -0.000802199 -0.00092358 -0.000680464 -0.000802199 -0.00132809 -0.00154913 -0.000802199 -0.00092358 -0.00154913 -0.00177989 -0.000883722 -0.00110333 -0.00125871 -0.0015815 -0.00110333 -0.00132809 -0.0015815 -0.00190402 -0.00125871 -0.0015815 -0.00156696 -0.00195647 -0.0015815 -0.00190402 -0.00195647 -0.00234052 -0.00132809 -0.00154913 -0.00190402 -0.00223544 -0.00154913 -0.00177989 -0.00223544 -0.00256186 -0.00190402 -0.00223544 -0.00234052 -0.00272597 -0.00223544 -0.00256186 -0.00272597 -0.00311025 0 -0.000393254 0 -0.000450169 -0.000393254 -0.000785287 -0.000450169 -0.000904324 0 -0.000450169 0 -0.000515408 -0.000450169 -0.000904324 -0.000515408 -0.00102792 -0.000785287 -0.00117803 -0.000904324 -0.00135481 -0.00117803 -0.00156696 -0.00135481 -0.00181779 -0.000904324 -0.00135481 -0.00102792 -0.00154619 -0.00135481 -0.00181779 -0.00154619 -0.00205476 0 -0.000515408 0 -0.000548175 -0.000515408 -0.00102792 -0.000548175 -0.00109599 0 -0.000548175 0 -0.000570377 -0.000548175 -0.00109599 -0.000570377 -0.00114904 -0.00102792 -0.00154619 -0.00109599 -0.00164973 -0.00154619 -0.00205476 -0.00164973 -0.00220354 -0.00109599 -0.00164973 -0.00114904 -0.00171277 -0.00164973 -0.00220354 -0.00171277 -0.00230102 -0.00156696 -0.00195647 -0.00181779 -0.00227409 -0.00195647 -0.00234052 -0.00227409 -0.00275145 -0.00181779 -0.00227409 -0.00205476 -0.00257519 -0.00227409 -0.00275145 -0.00257519 -0.0030776 -0.00234052 -0.00272597 -0.00275145 -0.00321776 -0.00272597 -0.00311025 -0.00321776 -0.00370917 -0.00275145 -0.00321776 -0.0030776 -0.00360163 -0.00321776 -0.00370917 -0.00360163 -0.00410185 -0.00205476 -0.00257519 -0.00220354 -0.00276819 -0.00257519 -0.0030776 -0.00276819 -0.00333581 -0.00220354 -0.00276819 -0.00230102 -0.00285957 -0.00276819 -0.00333581 -0.00285957 -0.00345843 -0.0030776 -0.00360163 -0.00333581 -0.00391476 -0.00360163 -0.00410185 -0.00391476 -0.00450075 -0.00333581 -0.00391476 -0.00345843 -0.00401538 -0.00391476 -0.00450075 -0.00401538 -0.00462932 0 0 -0.00092358 -0.0010494 0 0 -0.0010494 -0.00117352 -0.00092358 -0.0010494 -0.00177989 -0.00200987 -0.0010494 -0.00117352 -0.00200987 -0.00225753 0 0 -0.00117352 -0.00130177 0 0 -0.00130177 -0.0014322 -0.00117352 -0.00130177 -0.00225753 -0.00250878 -0.00130177 -0.0014322 -0.00250878 -0.00278059 -0.00177989 -0.00200987 -0.00256186 -0.00289556 -0.00200987 -0.00225753 -0.00289556 -0.00321392 -0.00256186 -0.00289556 -0.00311025 -0.00350273 -0.00289556 -0.00321392 -0.00350273 -0.00390933 -0.00225753 -0.00250878 -0.00321392 -0.00353901 -0.00250878 -0.00278059 -0.00353901 -0.00384813 -0.00321392 -0.00353901 -0.00390933 -0.00433428 -0.00353901 -0.00384813 -0.00433428 -0.00478874 0 0 -0.0014322 -0.00157435 0 0 -0.00157435 -0.00173458 -0.0014322 -0.00157435 -0.00278059 -0.00305074 -0.00157435 -0.00173458 -0.00305074 -0.00333251 0 0 -0.00173458 -0.00191892 0 0 -0.00191892 -0.00213413 -0.00173458 -0.00191892 -0.00333251 -0.00361399 -0.00191892 -0.00213413 -0.00361399 -0.00393292 -0.00278059 -0.00305074 -0.00384813 -0.00418923 -0.00305074 -0.00333251 -0.00418923 -0.00454809 -0.00384813 -0.00418923 -0.00478874 -0.00525365 -0.00418923 -0.00454809 -0.00525365 -0.00574928 -0.00333251 -0.00361399 -0.00454809 -0.00499321 -0.00361399 -0.00393292 -0.00499321 -0.00549531 -0.00454809 -0.00499321 -0.00574928 -0.00624519 -0.00499321 -0.00549531 -0.00624519 -0.0068304 -0.00311025 -0.00350273 -0.00370917 -0.00417907 -0.00350273 -0.00390933 -0.00417907 -0.00466967 -0.00370917 -0.00417907 -0.00410185 -0.00464428 -0.00417907 -0.00466967 -0.00464428 -0.00516514 -0.00390933 -0.00433428 -0.00466967 -0.0051285 -0.00433428 -0.00478874 -0.0051285 -0.00561297 -0.00466967 -0.0051285 -0.00516514 -0.00575984 -0.0051285 -0.00561297 -0.00575984 -0.00633438 -0.00410185 -0.00464428 -0.00450075 -0.00508825 -0.00464428 -0.00516514 -0.00508825 -0.00568857 -0.00450075 -0.00508825 -0.00462932 -0.00519717 -0.00508825 -0.00568857 -0.00519717 -0.00584007 -0.00516514 -0.00575984 -0.00568857 -0.00627329 -0.00575984 -0.00633438 -0.00627329 -0.00689779 -0.00568857 -0.00627329 -0.00584007 -0.00644521 -0.00627329 -0.00689779 -0.00644521 -0.00713832 -0.00478874 -0.00525365 -0.00561297 -0.00609239 -0.00525365 -0.00574928 -0.00609239 -0.00664825 -0.00561297 -0.00609239 -0.00633438 -0.00700589 -0.00609239 -0.00664825 -0.00700589 -0.00764672 -0.00574928 -0.00624519 -0.00664825 -0.00728585 -0.00624519 -0.0068304 -0.00728585 -0.00807365 -0.00664825 -0.00728585 -0.00764672 -0.00841332 -0.00728585 -0.00807365 -0.00841332 -0.00920618 -0.00633438 -0.00700589 -0.00689779 -0.00751083 -0.00700589 -0.00764672 -0.00751083 -0.00824918 -0.00689779 -0.00751083 -0.00713832 -0.00781822 -0.00751083 -0.00824918 -0.00781822 -0.00859664 -0.00764672 -0.00841332 -0.00824918 -0.00902736 -0.00841332 -0.00920618 -0.00902736 -0.010077 -0.00824918 -0.00902736 -0.00859664 -0.00944435 -0.00902736 -0.010077 -0.00944435 -0.0104648 0 -0.000570377 0 -0.000575692 -0.000570377 -0.00114904 -0.000575692 -0.00114446 0 -0.000575692 0 -0.000558074 -0.000575692 -0.00114446 -0.000558074 -0.00111375 -0.00114904 -0.00171277 -0.00114446 -0.00172974 -0.00171277 -0.00230102 -0.00172974 -0.00229313 -0.00114446 -0.00172974 -0.00111375 -0.00167674 -0.00172974 -0.00229313 -0.00167674 -0.00223447 0 -0.000558074 0 -0.000525838 -0.000558074 -0.00111375 -0.000525838 -0.00106604 0 -0.000525838 0 -0.000484003 -0.000525838 -0.00106604 -0.000484003 -0.000957839 -0.00111375 -0.00167674 -0.00106604 -0.00157896 -0.00167674 -0.00223447 -0.00157896 -0.00213416 -0.00106604 -0.00157896 -0.000957839 -0.00145381 -0.00157896 -0.00213416 -0.00145381 -0.00191823 -0.00230102 -0.00285957 -0.00229313 -0.00289164 -0.00285957 -0.00345843 -0.00289164 -0.00344998 -0.00229313 -0.00289164 -0.00223447 -0.00280396 -0.00289164 -0.00344998 -0.00280396 -0.00337123 -0.00345843 -0.00401538 -0.00344998 -0.00406576 -0.00401538 -0.00462932 -0.00406576 -0.00461853 -0.00344998 -0.00406576 -0.00337123 -0.00394843 -0.00406576 -0.00461853 -0.00394843 -0.00453597 -0.00223447 -0.00280396 -0.00213416 -0.00263514 -0.00280396 -0.00337123 -0.00263514 -0.00320405 -0.00213416 -0.00263514 -0.00191823 -0.002431 -0.00263514 -0.00320405 -0.002431 -0.00288754 -0.00337123 -0.00394843 -0.00320405 -0.00369494 -0.00394843 -0.00453597 -0.00369494 -0.00427699 -0.00320405 -0.00369494 -0.00288754 -0.00342489 -0.00369494 -0.00427699 -0.00342489 -0.00387499 0 -0.000484003 0 -0.000441967 -0.000484003 -0.000957839 -0.000441967 -0.000878703 0 -0.000441967 0 -0.000384372 -0.000441967 -0.000878703 -0.000384372 -0.000781658 -0.000957839 -0.00145381 -0.000878703 -0.00132451 -0.00145381 -0.00191823 -0.00132451 -0.00175632 -0.000878703 -0.00132451 -0.000781658 -0.00115391 -0.00132451 -0.00175632 -0.00115391 -0.00156485 0 -0.000384372 0 -0.000332214 -0.000384372 -0.000781658 -0.000332214 -0.000659188 0 -0.000332214 0 -0.00027631 -0.000332214 -0.000659188 -0.00027631 -0.000548993 -0.000781658 -0.00115391 -0.000659188 -0.000995382 -0.00115391 -0.00156485 -0.000995382 -0.00131451 -0.000659188 -0.000995382 -0.000548993 -0.000826464 -0.000995382 -0.00131451 -0.000826464 -0.00109457 -0.00191823 -0.002431 -0.00175632 -0.00220163 -0.002431 -0.00288754 -0.00220163 -0.0026303 -0.00175632 -0.00220163 -0.00156485 -0.00192737 -0.00220163 -0.0026303 -0.00192737 -0.00235327 -0.00288754 -0.00342489 -0.0026303 -0.0030694 -0.00342489 -0.00387499 -0.0030694 -0.00350357 -0.0026303 -0.0030694 -0.00235327 -0.0027104 -0.0030694 -0.00350357 -0.0027104 -0.00315027 -0.00156485 -0.00192737 -0.00131451 -0.00165372 -0.00192737 -0.00235327 -0.00165372 -0.00196109 -0.00131451 -0.00165372 -0.00109457 -0.00137169 -0.00165372 -0.00196109 -0.00137169 -0.00163798 -0.00235327 -0.0027104 -0.00196109 -0.00230395 -0.0027104 -0.00315027 -0.00230395 -0.00260019 -0.00196109 -0.00230395 -0.00163798 -0.00191571 -0.00230395 -0.00260019 -0.00191571 -0.00218663 -0.00462932 -0.00519717 -0.00461853 -0.00525684 -0.00519717 -0.00584007 -0.00525684 -0.00580852 -0.00461853 -0.00525684 -0.00453597 -0.0051205 -0.00525684 -0.00580852 -0.0051205 -0.00574072 -0.00584007 -0.00644521 -0.00580852 -0.00648623 -0.00644521 -0.00713832 -0.00648623 -0.00706788 -0.00580852 -0.00648623 -0.00574072 -0.00633118 -0.00648623 -0.00706788 -0.00633118 -0.00700632 -0.00453597 -0.0051205 -0.00427699 -0.00476921 -0.0051205 -0.00574072 -0.00476921 -0.00537589 -0.00427699 -0.00476921 -0.00387499 -0.00444291 -0.00476921 -0.00537589 -0.00444291 -0.00488564 -0.00574072 -0.00633118 -0.00537589 -0.00590748 -0.00633118 -0.00700632 -0.00590748 -0.00657559 -0.00537589 -0.00590748 -0.00488564 -0.00548948 -0.00590748 -0.00657559 -0.00548948 -0.00594516 -0.00713832 -0.00781822 -0.00706788 -0.00784014 -0.00781822 -0.00859664 -0.00784014 -0.00854576 -0.00706788 -0.00784014 -0.00700632 -0.00762896 -0.00784014 -0.00854576 -0.00762896 -0.00844711 -0.00859664 -0.00944435 -0.00854576 -0.00954171 -0.00944435 -0.0104648 -0.00954171 -0.010582 -0.00854576 -0.00954171 -0.00844711 -0.00925104 -0.00954171 -0.010582 -0.00925104 -0.0104804 -0.00700632 -0.00762896 -0.00657559 -0.00722132 -0.00762896 -0.00844711 -0.00722132 -0.00801938 -0.00657559 -0.00722132 -0.00594516 -0.00664077 -0.00722132 -0.00801938 -0.00664077 -0.00724615 -0.00844711 -0.00925104 -0.00801938 -0.00891935 -0.00925104 -0.0104804 -0.00891935 -0.0100455 -0.00801938 -0.00891935 -0.00724615 -0.00825239 -0.00891935 -0.0100455 -0.00825239 -0.00936649 -0.00387499 -0.00444291 -0.00350357 -0.00393961 -0.00444291 -0.00488564 -0.00393961 -0.00440941 -0.00350357 -0.00393961 -0.00315027 -0.0035055 -0.00393961 -0.00440941 -0.0035055 -0.0039525 -0.00488564 -0.00548948 -0.00440941 -0.00487078 -0.00548948 -0.00594516 -0.00487078 -0.00543698 -0.00440941 -0.00487078 -0.0039525 -0.00431603 -0.00487078 -0.00543698 -0.00431603 -0.00478594 -0.00315027 -0.0035055 -0.00260019 -0.00295842 -0.0035055 -0.0039525 -0.00295842 -0.00326558 -0.00260019 -0.00295842 -0.00218663 -0.00246694 -0.00295842 -0.00326558 -0.00246694 -0.00275068 -0.0039525 -0.00431603 -0.00326558 -0.00367926 -0.00431603 -0.00478594 -0.00367926 -0.00405857 -0.00326558 -0.00367926 -0.00275068 -0.0030422 -0.00367926 -0.00405857 -0.0030422 -0.00337119 -0.00594516 -0.00664077 -0.00543698 -0.00597962 -0.00664077 -0.00724615 -0.00597962 -0.00673238 -0.00543698 -0.00597962 -0.00478594 -0.00524186 -0.00597962 -0.00673238 -0.00524186 -0.00588179 -0.00724615 -0.00825239 -0.00673238 -0.00748525 -0.00825239 -0.00936649 -0.00748525 -0.00868863 -0.00673238 -0.00748525 -0.00588179 -0.00671884 -0.00748525 -0.00868863 -0.00671884 -0.00792467 -0.00478594 -0.00524186 -0.00405857 -0.00460506 -0.00524186 -0.00588179 -0.00460506 -0.00517361 -0.00405857 -0.00460506 -0.00337119 -0.00374777 -0.00460506 -0.00517361 -0.00374777 -0.00427989 -0.00588179 -0.00671884 -0.00517361 -0.00602167 -0.00671884 -0.00792467 -0.00602167 -0.00710885 -0.00517361 -0.00602167 -0.00427989 -0.00502845 -0.00602167 -0.00710885 -0.00502845 -0.00621736 0 0 -0.00213413 -0.00236996 0 0 -0.00236996 -0.00264762 -0.00213413 -0.00236996 -0.00393292 -0.00432931 -0.00236996 -0.00264762 -0.00432931 -0.00486672 0 0 -0.00264762 -0.00297565 0 0 -0.00297565 -0.00344421 -0.00264762 -0.00297565 -0.00486672 -0.00560619 -0.00297565 -0.00344421 -0.00560619 -0.00656781 -0.00393292 -0.00432931 -0.00549531 -0.00611706 -0.00432931 -0.00486672 -0.00611706 -0.00683675 -0.00549531 -0.00611706 -0.0068304 -0.00752022 -0.00611706 -0.00683675 -0.00752022 -0.00851386 -0.00486672 -0.00560619 -0.00683675 -0.00779183 -0.00560619 -0.00656781 -0.00779183 -0.00910333 -0.00683675 -0.00779183 -0.00851386 -0.00983506 -0.00779183 -0.00910333 -0.00983506 -0.01172 0 0 -0.00344421 -0.00409085 0 0 -0.00409085 -0.00501735 -0.00344421 -0.00409085 -0.00656781 -0.00784406 -0.00409085 -0.00501735 -0.00784406 -0.00951406 0 0 -0.00501735 -0.00619903 0 0 -0.00619903 -0.00772045 -0.00501735 -0.00619903 -0.00951406 -0.0118465 -0.00619903 -0.00772045 -0.0118465 -0.0149312 -0.00656781 -0.00784406 -0.00910333 -0.0110148 -0.00784406 -0.00951406 -0.0110148 -0.0136922 -0.00910333 -0.0110148 -0.01172 -0.0141974 -0.0110148 -0.0136922 -0.0141974 -0.0176536 -0.00951406 -0.0118465 -0.0136922 -0.0172575 -0.0118465 -0.0149312 -0.0172575 -0.0218759 -0.0136922 -0.0172575 -0.0176536 -0.0223009 -0.0172575 -0.0218759 -0.0223009 -0.0285476 -0.0068304 -0.00752022 -0.00807365 -0.00904581 -0.00752022 -0.00851386 -0.00904581 -0.0102503 -0.00807365 -0.00904581 -0.00920618 -0.0102807 -0.00904581 -0.0102503 -0.0102807 -0.011643 -0.00851386 -0.00983506 -0.0102503 -0.0118689 -0.00983506 -0.01172 -0.0118689 -0.014048 -0.0102503 -0.0118689 -0.011643 -0.0136144 -0.0118689 -0.014048 -0.0136144 -0.0163044 -0.00920618 -0.0102807 -0.010077 -0.0112611 -0.0102807 -0.011643 -0.0112611 -0.0129465 -0.010077 -0.0112611 -0.0104648 -0.0118057 -0.0112611 -0.0129465 -0.0118057 -0.0135609 -0.011643 -0.0136144 -0.0129465 -0.0150402 -0.0136144 -0.0163044 -0.0150402 -0.018159 -0.0129465 -0.0150402 -0.0135609 -0.0161344 -0.0150402 -0.018159 -0.0161344 -0.0195753 -0.01172 -0.0141974 -0.014048 -0.0172222 -0.0141974 -0.0176536 -0.0172222 -0.0215301 -0.014048 -0.0172222 -0.0163044 -0.0200399 -0.0172222 -0.0215301 -0.0200399 -0.0251808 -0.0176536 -0.0223009 -0.0215301 -0.0274623 -0.0223009 -0.0285476 -0.0274623 -0.0350219 -0.0215301 -0.0274623 -0.0251808 -0.0320901 -0.0274623 -0.0350219 -0.0320901 -0.0413326 -0.0163044 -0.0200399 -0.018159 -0.0223768 -0.0200399 -0.0251808 -0.0223768 -0.0284576 -0.018159 -0.0223768 -0.0195753 -0.0246069 -0.0223768 -0.0284576 -0.0246069 -0.0312616 -0.0251808 -0.0320901 -0.0284576 -0.0365511 -0.0320901 -0.0413326 -0.0365511 -0.0472247 -0.0284576 -0.0365511 -0.0312616 -0.0405715 -0.0365511 -0.0472247 -0.0405715 -0.0524705 0 0 -0.00772045 -0.00958224 0 0 -0.00958224 -0.0118744 -0.00772045 -0.00958224 -0.0149312 -0.0189032 -0.00958224 -0.0118744 -0.0189032 -0.0235412 0 0 -0.0118744 -0.0144768 0 0 -0.0144768 -0.0171645 -0.0118744 -0.0144768 -0.0235412 -0.0287698 -0.0144768 -0.0171645 -0.0287698 -0.0341933 -0.0149312 -0.0189032 -0.0218759 -0.0276437 -0.0189032 -0.0235412 -0.0276437 -0.0347394 -0.0218759 -0.0276437 -0.0285476 -0.0363932 -0.0276437 -0.0347394 -0.0363932 -0.0457088 -0.0235412 -0.0287698 -0.0347394 -0.0427181 -0.0287698 -0.0341933 -0.0427181 -0.0510309 -0.0347394 -0.0427181 -0.0457088 -0.0561887 -0.0427181 -0.0510309 -0.0561887 -0.0670658 0 0 -0.0171645 -0.0196328 0 0 -0.0196328 -0.0214428 -0.0171645 -0.0196328 -0.0341933 -0.0392527 -0.0196328 -0.0214428 -0.0392527 -0.0429958 0 0 -0.0214428 -0.0222142 0 0 -0.0222142 -0.0212712 -0.0214428 -0.0222142 -0.0429958 -0.0443841 -0.0222142 -0.0212712 -0.0443841 -0.0427936 -0.0341933 -0.0392527 -0.0510309 -0.0584971 -0.0392527 -0.0429958 -0.0584971 -0.0641761 -0.0510309 -0.0584971 -0.0670658 -0.077309 -0.0584971 -0.0641761 -0.077309 -0.0847455 -0.0429958 -0.0443841 -0.0641761 -0.0664924 -0.0443841 -0.0427936 -0.0664924 -0.0640143 -0.0641761 -0.0664924 -0.0847455 -0.087767 -0.0664924 -0.0640143 -0.087767 -0.0843149 -0.0285476 -0.0363932 -0.0350219 -0.0447146 -0.0363932 -0.0457088 -0.0447146 -0.0562774 -0.0350219 -0.0447146 -0.0413326 -0.0528167 -0.0447146 -0.0562774 -0.0528167 -0.0667444 -0.0457088 -0.0561887 -0.0562774 -0.0694608 -0.0561887 -0.0670658 -0.0694608 -0.082965 -0.0562774 -0.0694608 -0.0667444 -0.0820867 -0.0694608 -0.082965 -0.0820867 -0.098204 -0.0413326 -0.0528167 -0.0472247 -0.0605864 -0.0528167 -0.0667444 -0.0605864 -0.0764819 -0.0472247 -0.0605864 -0.0524705 -0.0678089 -0.0605864 -0.0764819 -0.0678089 -0.0859209 -0.0667444 -0.0820867 -0.0764819 -0.0944974 -0.0820867 -0.098204 -0.0944974 -0.112833 -0.0764819 -0.0944974 -0.0859209 -0.106324 -0.0944974 -0.112833 -0.106324 -0.127104 -0.0670658 -0.077309 -0.082965 -0.0952397 -0.077309 -0.0847455 -0.0952397 -0.104413 -0.082965 -0.0952397 -0.098204 -0.11274 -0.0952397 -0.104413 -0.11274 -0.123564 -0.0847455 -0.087767 -0.104413 -0.1079 -0.087767 -0.0843149 -0.1079 -0.103899 -0.104413 -0.1079 -0.123564 -0.127591 -0.1079 -0.103899 -0.127591 -0.122219 -0.098204 -0.11274 -0.112833 -0.129858 -0.11274 -0.123564 -0.129858 -0.141862 -0.112833 -0.129858 -0.127104 -0.145678 -0.129858 -0.141862 -0.145678 -0.159322 -0.123564 -0.127591 -0.141862 -0.146365 -0.127591 -0.122219 -0.146365 -0.139799 -0.141862 -0.146365 -0.159322 -0.16378 -0.146365 -0.139799 -0.16378 -0.156527 -0.0104648 -0.0118057 -0.010582 -0.0120931 -0.0118057 -0.0135609 -0.0120931 -0.0139667 -0.010582 -0.0120931 -0.0104804 -0.0118673 -0.0120931 -0.0139667 -0.0118673 -0.01408 -0.0135609 -0.0161344 -0.0139667 -0.0167118 -0.0161344 -0.0195753 -0.0167118 -0.0205347 -0.0139667 -0.0167118 -0.01408 -0.016885 -0.0167118 -0.0205347 -0.016885 -0.0212325 -0.0104804 -0.0118673 -0.0100455 -0.0116161 -0.0118673 -0.01408 -0.0116161 -0.0137329 -0.0100455 -0.0116161 -0.00936649 -0.0111251 -0.0116161 -0.0137329 -0.0111251 -0.0133911 -0.01408 -0.016885 -0.0137329 -0.0170147 -0.016885 -0.0212325 -0.0170147 -0.02149 -0.0137329 -0.0170147 -0.0133911 -0.0167657 -0.0170147 -0.02149 -0.0167657 -0.0215922 -0.0195753 -0.0246069 -0.0205347 -0.0259689 -0.0246069 -0.0312616 -0.0259689 -0.0336439 -0.0205347 -0.0259689 -0.0212325 -0.0271097 -0.0259689 -0.0336439 -0.0271097 -0.0356115 -0.0312616 -0.0405715 -0.0336439 -0.0439104 -0.0405715 -0.0524705 -0.0439104 -0.0576441 -0.0336439 -0.0439104 -0.0356115 -0.0469335 -0.0439104 -0.0576441 -0.0469335 -0.0618216 -0.0212325 -0.0271097 -0.02149 -0.0281808 -0.0271097 -0.0356115 -0.0281808 -0.0370908 -0.02149 -0.0281808 -0.0215922 -0.0285901 -0.0281808 -0.0370908 -0.0285901 -0.0386432 -0.0356115 -0.0469335 -0.0370908 -0.0496264 -0.0469335 -0.0618216 -0.0496264 -0.0657279 -0.0370908 -0.0496264 -0.0386432 -0.0521244 -0.0496264 -0.0657279 -0.0521244 -0.069962 -0.00936649 -0.0111251 -0.00868863 -0.0101696 -0.0111251 -0.0133911 -0.0101696 -0.0126963 -0.00868863 -0.0101696 -0.00792467 -0.00970475 -0.0101696 -0.0126963 -0.00970475 -0.0122066 -0.0133911 -0.0167657 -0.0126963 -0.0162269 -0.0167657 -0.0215922 -0.0162269 -0.0217202 -0.0126963 -0.0162269 -0.0122066 -0.0159953 -0.0162269 -0.0217202 -0.0159953 -0.0214093 -0.00792467 -0.00970475 -0.00710885 -0.00882564 -0.00970475 -0.0122066 -0.00882564 -0.0114102 -0.00710885 -0.00882564 -0.00621736 -0.00802433 -0.00882564 -0.0114102 -0.00802433 -0.0108376 -0.0122066 -0.0159953 -0.0114102 -0.0154154 -0.0159953 -0.0214093 -0.0154154 -0.0214148 -0.0114102 -0.0154154 -0.0108376 -0.0150997 -0.0154154 -0.0214148 -0.0150997 -0.0214579 -0.0215922 -0.0285901 -0.0217202 -0.0293 -0.0285901 -0.0386432 -0.0293 -0.0400063 -0.0217202 -0.0293 -0.0214093 -0.0295323 -0.0293 -0.0400063 -0.0295323 -0.0408903 -0.0386432 -0.0521244 -0.0400063 -0.0543871 -0.0521244 -0.069962 -0.0543871 -0.0732659 -0.0400063 -0.0543871 -0.0408903 -0.0565838 -0.0543871 -0.0732659 -0.0565838 -0.0768591 -0.0214093 -0.0295323 -0.0214148 -0.0300661 -0.0295323 -0.0408903 -0.0300661 -0.0422798 -0.0214148 -0.0300661 -0.0214579 -0.030734 -0.0300661 -0.0422798 -0.030734 -0.0437296 -0.0408903 -0.0565838 -0.0422798 -0.0587685 -0.0565838 -0.0768591 -0.0587685 -0.0803566 -0.0422798 -0.0587685 -0.0437296 -0.0613933 -0.0587685 -0.0803566 -0.0613933 -0.0842403 -0.0524705 -0.0678089 -0.0576441 -0.074464 -0.0678089 -