<?xml version="1.0" ?> 
<!-- 
# vtk DataFile Version 3.0
#This file was generated by the deal.II library on 23:53:54 at 2021/5/3
-->
<VTKFile type="UnstructuredGrid" version="0.1" byte_order="LittleEndian">
<UnstructuredGrid>
<FieldData>
<DataArray type="Float32" Name="CYCLE" NumberOfTuples="1" format="ascii">155</DataArray>
<DataArray type="Float32" Name="TIME" NumberOfTuples="1" format="ascii">0.31</DataArray>
</FieldData>
<Piece NumberOfPoints="6420" NumberOfCells="1605" >
  <Points>
    <DataArray type="Float32" NumberOfComponents="3" format="ascii">
-1 -1 0
-0.75 -1 0
-1 -0.75 0
-0.75 -0.75 0
-0.75 -1 0
-0.5 -1 0
-0.75 -0.75 0
-0.5 -0.75 0
-1 -0.75 0
-0.75 -0.75 0
-1 -0.5 0
-0.75 -0.5 0
-1 -0.5 0
-0.75 -0.5 0
-1 -0.25 0
-0.75 -0.25 0
-1 -0.25 0
-0.75 -0.25 0
-1 0 0
-0.75 0 0
0.875 -1 0
1 -1 0
0.875 -0.875 0
1 -0.875 0
-0.25 -0.75 0
-0.125 -0.75 0
-0.25 -0.625 0
-0.125 -0.625 0
0 -1 0
0.125 -1 0
0 -0.875 0
0.125 -0.875 0
0.125 -1 0
0.25 -1 0
0.125 -0.875 0
0.25 -0.875 0
0 -0.875 0
0.125 -0.875 0
0 -0.75 0
0.125 -0.75 0
-0.75 -0.25 0
-0.625 -0.25 0
-0.75 -0.125 0
-0.625 -0.125 0
-0.625 -0.25 0
-0.5 -0.25 0
-0.625 -0.125 0
-0.5 -0.125 0
-0.75 -0.125 0
-0.625 -0.125 0
-0.75 0 0
-0.625 0 0
-0.5 -0.25 0
-0.375 -0.25 0
-0.5 -0.125 0
-0.375 -0.125 0
-0.375 -0.25 0
-0.25 -0.25 0
-0.375 -0.125 0
-0.25 -0.125 0
-0.375 -0.125 0
-0.25 -0.125 0
-0.375 0 0
-0.25 0 0
-0.5 -0.75 0
-0.375 -0.75 0
-0.5 -0.625 0
-0.375 -0.625 0
-0.375 -0.75 0
-0.25 -0.75 0
-0.375 -0.625 0
-0.25 -0.625 0
0.25 -0.875 0
0.375 -0.875 0
0.25 -0.75 0
0.375 -0.75 0
-0.75 0 0
-0.625 0 0
-0.75 0.125 0
-0.625 0.125 0
-0.625 0 0
-0.5 0 0
-0.625 0.125 0
-0.5 0.125 0
-0.75 0.125 0
-0.625 0.125 0
-0.75 0.25 0
-0.625 0.25 0
-1 0.25 0
-0.875 0.25 0
-1 0.375 0
-0.875 0.375 0
-0.875 0.25 0
-0.75 0.25 0
-0.875 0.375 0
-0.75 0.375 0
-1 0.375 0
-0.875 0.375 0
-1 0.5 0
-0.875 0.5 0
-0.5 0 0
-0.375 0 0
-0.5 0.125 0
-0.375 0.125 0
-0.375 0 0
-0.25 0 0
-0.375 0.125 0
-0.25 0.125 0
-1 0.5 0
-0.875 0.5 0
-1 0.625 0
-0.875 0.625 0
-1 0.625 0
-0.875 0.625 0
-1 0.75 0
-0.875 0.75 0
-0.5 -1 0
-0.375 -1 0
-0.5 -0.875 0
-0.375 -0.875 0
-0.375 -1 0
-0.25 -1 0
-0.375 -0.875 0
-0.25 -0.875 0
-0.5 -0.875 0
-0.375 -0.875 0
-0.5 -0.75 0
-0.375 -0.75 0
-0.375 -0.875 0
-0.25 -0.875 0
-0.375 -0.75 0
-0.25 -0.75 0
-0.5 -0.375 0
-0.375 -0.375 0
-0.5 -0.25 0
-0.375 -0.25 0
-0.25 -1 0
-0.125 -1 0
-0.25 -0.875 0
-0.125 -0.875 0
-0.125 -1 0
0 -1 0
-0.125 -0.875 0
0 -0.875 0
-0.125 -0.875 0
0 -0.875 0
-0.125 -0.75 0
0 -0.75 0
-0.75 -0.75 0
-0.625 -0.75 0
-0.75 -0.625 0
-0.625 -0.625 0
-0.625 -0.75 0
-0.5 -0.75 0
-0.625 -0.625 0
-0.5 -0.625 0
-0.75 -0.625 0
-0.625 -0.625 0
-0.75 -0.5 0
-0.625 -0.5 0
-0.625 -0.625 0
-0.5 -0.625 0
-0.625 -0.5 0
-0.5 -0.5 0
-0.75 -0.5 0
-0.625 -0.5 0
-0.75 -0.375 0
-0.625 -0.375 0
-0.625 -0.5 0
-0.5 -0.5 0
-0.625 -0.375 0
-0.5 -0.375 0
-0.75 -0.375 0
-0.625 -0.375 0
-0.75 -0.25 0
-0.625 -0.25 0
-0.625 -0.375 0
-0.5 -0.375 0
-0.625 -0.25 0
-0.5 -0.25 0
-1 0.75 0
-0.875 0.75 0
-1 0.875 0
-0.875 0.875 0
-0.875 0.75 0
-0.75 0.75 0
-0.875 0.875 0
-0.75 0.875 0
-1 0.875 0
-0.875 0.875 0
-1 1 0
-0.875 1 0
-0.875 0.875 0
-0.75 0.875 0
-0.875 1 0
-0.75 1 0
-1 0 0
-0.875 0 0
-1 0.125 0
-0.875 0.125 0
-0.875 0 0
-0.75 0 0
-0.875 0.125 0
-0.75 0.125 0
-1 0.125 0
-0.875 0.125 0
-1 0.25 0
-0.875 0.25 0
0.75 -0.8125 0
0.8125 -0.8125 0
0.75 -0.75 0
0.8125 -0.75 0
0.8125 -0.8125 0
0.875 -0.8125 0
0.8125 -0.75 0
0.875 -0.75 0
0.375 -0.75 0
0.4375 -0.75 0
0.375 -0.6875 0
0.4375 -0.6875 0
0.4375 -0.75 0
0.5 -0.75 0
0.4375 -0.6875 0
0.5 -0.6875 0
0.375 -0.6875 0
0.4375 -0.6875 0
0.375 -0.625 0
0.4375 -0.625 0
0.4375 -0.6875 0
0.5 -0.6875 0
0.4375 -0.625 0
0.5 -0.625 0
0.75 -1 0
0.8125 -1 0
0.75 -0.9375 0
0.8125 -0.9375 0
0.8125 -1 0
0.875 -1 0
0.8125 -0.9375 0
0.875 -0.9375 0
0.75 -0.9375 0
0.8125 -0.9375 0
0.75 -0.875 0
0.8125 -0.875 0
0.8125 -0.9375 0
0.875 -0.9375 0
0.8125 -0.875 0
0.875 -0.875 0
0.3125 -0.625 0
0.375 -0.625 0
0.3125 -0.5625 0
0.375 -0.5625 0
0.25 -0.5625 0
0.3125 -0.5625 0
0.25 -0.5 0
0.3125 -0.5 0
0.3125 -0.5625 0
0.375 -0.5625 0
0.3125 -0.5 0
0.375 -0.5 0
0.375 -0.625 0
0.4375 -0.625 0
0.375 -0.5625 0
0.4375 -0.5625 0
0.5 -0.8125 0
0.5625 -0.8125 0
0.5 -0.75 0
0.5625 -0.75 0
0.5625 -0.8125 0
0.625 -0.8125 0
0.5625 -0.75 0
0.625 -0.75 0
0.625 -0.8125 0
0.6875 -0.8125 0
0.625 -0.75 0
0.6875 -0.75 0
0.6875 -0.8125 0
0.75 -0.8125 0
0.6875 -0.75 0
0.75 -0.75 0
0.875 -0.75 0
0.9375 -0.75 0
0.875 -0.6875 0
0.9375 -0.6875 0
0.9375 -0.75 0
1 -0.75 0
0.9375 -0.6875 0
1 -0.6875 0
0.875 -0.6875 0
0.9375 -0.6875 0
0.875 -0.625 0
0.9375 -0.625 0
0.9375 -0.6875 0
1 -0.6875 0
0.9375 -0.625 0
1 -0.625 0
0.25 -0.125 0
0.3125 -0.125 0
0.25 -0.0625 0
0.3125 -0.0625 0
0.3125 -0.125 0
0.375 -0.125 0
0.3125 -0.0625 0
0.375 -0.0625 0
0.25 -0.0625 0
0.3125 -0.0625 0
0.25 0 0
0.3125 0 0
0.3125 -0.0625 0
0.375 -0.0625 0
0.3125 0 0
0.375 0 0
0.875 -0.875 0
0.9375 -0.875 0
0.875 -0.8125 0
0.9375 -0.8125 0
0.9375 -0.875 0
1 -0.875 0
0.9375 -0.8125 0
1 -0.8125 0
0.875 -0.8125 0
0.9375 -0.8125 0
0.875 -0.75 0
0.9375 -0.75 0
0.9375 -0.8125 0
1 -0.8125 0
0.9375 -0.75 0
1 -0.75 0
-0.125 -0.5 0
-0.0625 -0.5 0
-0.125 -0.4375 0
-0.0625 -0.4375 0
-0.0625 -0.5 0
0 -0.5 0
-0.0625 -0.4375 0
0 -0.4375 0
0 -0.625 0
0.0625 -0.625 0
0 -0.5625 0
0.0625 -0.5625 0
0.0625 -0.625 0
0.125 -0.625 0
0.0625 -0.5625 0
0.125 -0.5625 0
0 -0.5625 0
0.0625 -0.5625 0
0 -0.5 0
0.0625 -0.5 0
0.0625 -0.5625 0
0.125 -0.5625 0
0.0625 -0.5 0
0.125 -0.5 0
0.125 -0.625 0
0.1875 -0.625 0
0.125 -0.5625 0
0.1875 -0.5625 0
0.1875 -0.625 0
0.25 -0.625 0
0.1875 -0.5625 0
0.25 -0.5625 0
0 -0.5 0
0.0625 -0.5 0
0 -0.4375 0
0.0625 -0.4375 0
0.0625 -0.5 0
0.125 -0.5 0
0.0625 -0.4375 0
0.125 -0.4375 0
0 -0.4375 0
0.0625 -0.4375 0
0 -0.375 0
0.0625 -0.375 0
0.125 -0.4375 0
0.1875 -0.4375 0
0.125 -0.375 0
0.1875 -0.375 0
0 -0.375 0
0.0625 -0.375 0
0 -0.3125 0
0.0625 -0.3125 0
0.0625 -0.375 0
0.125 -0.375 0
0.0625 -0.3125 0
0.125 -0.3125 0
0 -0.3125 0
0.0625 -0.3125 0
0 -0.25 0
0.0625 -0.25 0
0.0625 -0.3125 0
0.125 -0.3125 0
0.0625 -0.25 0
0.125 -0.25 0
0 -0.25 0
0.0625 -0.25 0
0 -0.1875 0
0.0625 -0.1875 0
0.0625 -0.25 0
0.125 -0.25 0
0.0625 -0.1875 0
0.125 -0.1875 0
0 -0.1875 0
0.0625 -0.1875 0
0 -0.125 0
0.0625 -0.125 0
0.125 -0.0625 0
0.1875 -0.0625 0
0.125 0 0
0.1875 0 0
0.1875 -0.0625 0
0.25 -0.0625 0
0.1875 0 0
0.25 0 0
0.375 -0.875 0
0.4375 -0.875 0
0.375 -0.8125 0
0.4375 -0.8125 0
0.375 -0.8125 0
0.4375 -0.8125 0
0.375 -0.75 0
0.4375 -0.75 0
0.25 -0.75 0
0.3125 -0.75 0
0.25 -0.6875 0
0.3125 -0.6875 0
0.3125 -0.75 0
0.375 -0.75 0
0.3125 -0.6875 0
0.375 -0.6875 0
0.25 -0.6875 0
0.3125 -0.6875 0
0.25 -0.625 0
0.3125 -0.625 0
0.3125 -0.6875 0
0.375 -0.6875 0
0.3125 -0.625 0
0.375 -0.625 0
0.5 -1 0
0.5625 -1 0
0.5 -0.9375 0
0.5625 -0.9375 0
0.5625 -1 0
0.625 -1 0
0.5625 -0.9375 0
0.625 -0.9375 0
0.5 -0.9375 0
0.5625 -0.9375 0
0.5 -0.875 0
0.5625 -0.875 0
0.5625 -0.9375 0
0.625 -0.9375 0
0.5625 -0.875 0
0.625 -0.875 0
0.625 -1 0
0.6875 -1 0
0.625 -0.9375 0
0.6875 -0.9375 0
0.6875 -1 0
0.75 -1 0
0.6875 -0.9375 0
0.75 -0.9375 0
0.625 -0.9375 0
0.6875 -0.9375 0
0.625 -0.875 0
0.6875 -0.875 0
0.6875 -0.9375 0
0.75 -0.9375 0
0.6875 -0.875 0
0.75 -0.875 0
0 -0.75 0
0.0625 -0.75 0
0 -0.6875 0
0.0625 -0.6875 0
0.0625 -0.75 0
0.125 -0.75 0
0.0625 -0.6875 0
0.125 -0.6875 0
0 -0.6875 0
0.0625 -0.6875 0
0 -0.625 0
0.0625 -0.625 0
0.0625 -0.6875 0
0.125 -0.6875 0
0.0625 -0.625 0
0.125 -0.625 0
0 -0.125 0
0.0625 -0.125 0
0 -0.0625 0
0.0625 -0.0625 0
0.0625 -0.125 0
0.125 -0.125 0
0.0625 -0.0625 0
0.125 -0.0625 0
0.0625 -0.0625 0
0.125 -0.0625 0
0.0625 0 0
0.125 0 0
-0.25 -0.375 0
-0.1875 -0.375 0
-0.25 -0.3125 0
-0.1875 -0.3125 0
-0.1875 -0.375 0
-0.125 -0.375 0
-0.1875 -0.3125 0
-0.125 -0.3125 0
-0.25 -0.3125 0
-0.1875 -0.3125 0
-0.25 -0.25 0
-0.1875 -0.25 0
-0.125 -0.1875 0
-0.0625 -0.1875 0
-0.125 -0.125 0
-0.0625 -0.125 0
-0.0625 -0.1875 0
0 -0.1875 0
-0.0625 -0.125 0
0 -0.125 0
-0.125 -0.125 0
-0.0625 -0.125 0
-0.125 -0.0625 0
-0.0625 -0.0625 0
-0.0625 -0.125 0
0 -0.125 0
-0.0625 -0.0625 0
0 -0.0625 0
-0.25 -0.625 0
-0.1875 -0.625 0
-0.25 -0.5625 0
-0.1875 -0.5625 0
-0.1875 -0.625 0
-0.125 -0.625 0
-0.1875 -0.5625 0
-0.125 -0.5625 0
-0.25 -0.5625 0
-0.1875 -0.5625 0
-0.25 -0.5 0
-0.1875 -0.5 0
-0.1875 -0.5625 0
-0.125 -0.5625 0
-0.1875 -0.5 0
-0.125 -0.5 0
-0.25 -0.5 0
-0.1875 -0.5 0
-0.25 -0.4375 0
-0.1875 -0.4375 0
-0.1875 -0.5 0
-0.125 -0.5 0
-0.1875 -0.4375 0
-0.125 -0.4375 0
-0.625 -0.125 0
-0.5625 -0.125 0
-0.625 -0.0625 0
-0.5625 -0.0625 0
-0.5625 -0.125 0
-0.5 -0.125 0
-0.5625 -0.0625 0
-0.5 -0.0625 0
-0.625 -0.0625 0
-0.5625 -0.0625 0
-0.625 0 0
-0.5625 0 0
-0.5625 -0.0625 0
-0.5 -0.0625 0
-0.5625 0 0
-0.5 0 0
-0.125 -0.75 0
-0.0625 -0.75 0
-0.125 -0.6875 0
-0.0625 -0.6875 0
-0.0625 -0.75 0
0 -0.75 0
-0.0625 -0.6875 0
0 -0.6875 0
-0.125 -0.6875 0
-0.0625 -0.6875 0
-0.125 -0.625 0
-0.0625 -0.625 0
-0.0625 -0.6875 0
0 -0.6875 0
-0.0625 -0.625 0
0 -0.625 0
-0.125 -0.625 0
-0.0625 -0.625 0
-0.125 -0.5625 0
-0.0625 -0.5625 0
-0.0625 0.0625 0
0 0.0625 0
-0.0625 0.125 0
0 0.125 0
-0.5 -0.125 0
-0.4375 -0.125 0
-0.5 -0.0625 0
-0.4375 -0.0625 0
-0.4375 -0.125 0
-0.375 -0.125 0
-0.4375 -0.0625 0
-0.375 -0.0625 0
-0.5 -0.0625 0
-0.4375 -0.0625 0
-0.5 0 0
-0.4375 0 0
-0.4375 -0.0625 0
-0.375 -0.0625 0
-0.4375 0 0
-0.375 0 0
0.125 -0.875 0
0.1875 -0.875 0
0.125 -0.8125 0
0.1875 -0.8125 0
0.1875 -0.875 0
0.25 -0.875 0
0.1875 -0.8125 0
0.25 -0.8125 0
0.125 -0.8125 0
0.1875 -0.8125 0
0.125 -0.75 0
0.1875 -0.75 0
0.1875 -0.8125 0
0.25 -0.8125 0
0.1875 -0.75 0
0.25 -0.75 0
0.125 -0.75 0
0.1875 -0.75 0
0.125 -0.6875 0
0.1875 -0.6875 0
-0.5 -0.625 0
-0.4375 -0.625 0
-0.5 -0.5625 0
-0.4375 -0.5625 0
-0.4375 -0.625 0
-0.375 -0.625 0
-0.4375 -0.5625 0
-0.375 -0.5625 0
-0.5 -0.5625 0
-0.4375 -0.5625 0
-0.5 -0.5 0
-0.4375 -0.5 0
-0.4375 -0.5625 0
-0.375 -0.5625 0
-0.4375 -0.5 0
-0.375 -0.5 0
-0.375 -0.625 0
-0.3125 -0.625 0
-0.375 -0.5625 0
-0.3125 -0.5625 0
-0.3125 -0.625 0
-0.25 -0.625 0
-0.3125 -0.5625 0
-0.25 -0.5625 0
-0.375 -0.5625 0
-0.3125 -0.5625 0
[...]
  <PointData Scalars="scalars">
    <DataArray type="Float32" Name="U" format="ascii">
0 0 0 8.03363e-05 0 0 8.03363e-05 0.0001813 0 8.03363e-05 0 0.000167345 0 0.000167345 0 0.000257068 0 0.000257068 0 0.000343621 0 0 0.000413204 0 0.000379597 0.00055808 0.000531956 0.000775222 0 0 0.000422396 0.000587007 0 0 0.000587007 0.000764948 0.000422396 0.000587007 0.000805075 0.00112145 0.000257068 0.000365943 0.000300345 0.000418234 0.000365943 0.000461525 0.000418234 0.00050444 0.000300345 0.000418234 0.000343621 0.000464536 0.000461525 0.00055487 0.00050444 0.000561003 0.00055487 0.000666941 0.000561003 0.000598192 0.000561003 0.000598192 0.000556684 0.00051491 0.0001813 0.000260275 0.000267707 0.000372547 0.000260275 0.000379597 0.000372547 0.000531956 0.000764948 0.000916794 0.00146215 0.00175218 0.000343621 0.000464536 0.000373054 0.000501016 0.000464536 0.000538468 0.000501016 0.000567705 0.000373054 0.000501016 0.000395118 0.000539216 0 0.000210474 0 0.000209807 0.000210474 0.000395118 0.000209807 0.000409221 0 0.000209807 0 0.000197014 0.000538468 0.000556684 0.000567705 0.000558705 0.000556684 0.00051491 0.000558705 0.000465532 0 0.000197014 0 0.000169196 0 0.000169196 0 0.000115279 0 0 9.06499e-05 0.00013343 0 0 0.00013343 0.000196573 9.06499e-05 0.00013343 0.0001813 0.000260275 0.00013343 0.000196573 0.000260275 0.000379597 0.00040877 0.00052616 0.000461525 0.00055487 0 0 0.000196573 0.000290666 0 0 0.000290666 0.000422396 0.000290666 0.000422396 0.00055808 0.000805075 8.03363e-05 0.000130818 0.000123841 0.000189923 0.000130818 0.0001813 0.000189923 0.000267707 0.000123841 0.000189923 0.000167345 0.000251125 0.000189923 0.000267707 0.000251125 0.000345594 0.000167345 0.000251125 0.000212207 0.000310132 0.000251125 0.000345594 0.000310132 0.00040877 0.000212207 0.000310132 0.000257068 0.000365943 0.000310132 0.00040877 0.000365943 0.000461525 0 0.000115279 0 5.83363e-05 0.000115279 0.00032808 5.83363e-05 0.000194341 0 5.83363e-05 0 0 5.83363e-05 0.000194341 0 0 0 0.00017181 0 0.000198694 0.00017181 0.000343621 0.000198694 0.000373054 0 0.000198694 0 0.000210474 0.00109526 0.000872377 0.00142422 0.00113365 0.000872377 0.000606262 0.00113365 0.000788193 0.00175218 0.00184204 0.0021026 0.00222007 0.00184204 0.00189053 0.00222007 0.00227693 0.0021026 0.00222007 0.00239938 0.00253297 0.00222007 0.00227693 0.00253297 0.00259858 0 0 0.000375325 0.000298924 0 0 0.000298924 0.000206602 0.000375325 0.000298924 0.000743037 0.000591626 0.000298924 0.000206602 0.000591626 0.000413204 0.00221621 0.00239938 0.0024195 0.00262063 0.00218482 0.0024195 0.00229395 0.00254028 0.0024195 0.00262063 0.00254028 0.00274681 0.00239938 0.00253297 0.00262063 0.00276353 0.00145435 0.00144661 0.00189053 0.00187883 0.00144661 0.00138496 0.00187883 0.00179975 0.00138496 0.00126769 0.00179975 0.00164813 0.00126769 0.00109526 0.00164813 0.00142422 0.000788193 0.000404181 0.000950111 0.000487484 0.000404181 0 0.000487484 0 0.000950111 0.000487484 0.00108489 0.000556873 0.000487484 0 0.000556873 0 0.00100359 0.00110385 0.000515838 0.000568865 0.00110385 0.00119641 0.000568865 0.000614535 0.000515838 0.000568865 0 0 0.000568865 0.000614535 0 0 0.000413204 0.000206602 0.000606262 0.000310873 0.000206602 0 0.000310873 0 0.000606262 0.000310873 0.000788193 0.000404181 0.000310873 0 0.000404181 0 0.000908105 0.0010796 0.000932287 0.00110234 0.0010796 0.00128434 0.00110234 0.00130522 0.00111229 0.00131757 0.00122016 0.00144024 0.00131757 0.00153951 0.00144024 0.00168128 0.00122016 0.00144024 0.00128434 0.00151493 0.00144024 0.00168128 0.00151493 0.00176796 0.00153951 0.00176952 0.00168128 0.00193072 0.00176952 0.00200114 0.00193072 0.00218482 0.00128434 0.00151493 0.00130522 0.00153438 0.00151493 0.00176796 0.00153438 0.00178478 0.00130522 0.00153438 0.00127893 0.00149336 0.00178478 0.00204726 0.00173211 0.00198474 0.00127893 0.00149336 0.00119869 0.00139025 0.00149336 0.00173211 0.00139025 0.0016048 0.00119869 0.00139025 0.00106834 0.0012238 0.00139025 0.0016048 0.0012238 0.00140305 0.00106834 0.0012238 0.000887817 0.000998577 0.0012238 0.00140305 0.000998577 0.00112861 0.000887817 0.000998577 0.000663865 0.000717086 0.000413067 0.000459947 0 0 0.000459947 0.000515838 0 0 0.000916794 0.000962664 0.00133448 0.0014179 0.00133448 0.0014179 0.00175218 0.00184204 0.00146215 0.00160716 0.00175485 0.0019435 0.00160716 0.00175218 0.0019435 0.0021026 0.00175485 0.0019435 0.00200114 0.00221621 0.0019435 0.0021026 0.00221621 0.00239938 0 0 0.00049906 0.000495774 0 0 0.000495774 0.00047463 0.00049906 0.000495774 0.000987282 0.000981453 0.000495774 0.00047463 0.000981453 0.000939454 0 0 0.00047463 0.000434458 0 0 0.000434458 0.000375325 0.00047463 0.000434458 0.000939454 0.000860053 0.000434458 0.000375325 0.000860053 0.000743037 0.000805075 0.000963264 0.00097482 0.0011544 0.000963264 0.00112145 0.0011544 0.00135004 0.00097482 0.0011544 0.00111229 0.00131757 0.0011544 0.00135004 0.00131757 0.00153951 0.000663865 0.000717086 0.000392253 0.000381649 0.000717086 0.000795755 0.000381649 0.000413067 0.000381649 0.000413067 0 0 0.000688166 0.000795391 0.000685881 0.000778991 0.000795391 0.000929096 0.000778991 0.000892595 0.000685881 0.000778991 0.000666941 0.000738692 0.000734412 0.00079898 0.000621914 0.000635756 0.00079898 0.000887817 0.000635756 0.000663865 0.000621914 0.000635756 0.000503278 0.000451731 0.000635756 0.000663865 0.000451731 0.000392253 0.000531956 0.000653589 0.000598045 0.000713553 0.000653589 0.000775222 0.000713553 0.000855517 0.000598045 0.000713553 0.000642847 0.000762787 0.000713553 0.000855517 0.000762787 0.000908105 0.000642847 0.000762787 0.000674469 0.000789782 0.000762787 0.000908105 0.000789782 0.000932287 0.000418234 0.000461337 0.000441385 0.000485984 0.000461337 0.00050444 0.000485984 0.000519117 0.000441385 0.000485984 0.000464536 0.000501502 0.000485984 0.000519117 0.000501502 0.000538468 0.00055808 0.000681577 0.000666651 0.000812923 0.000681577 0.000805075 0.000812923 0.00097482 0.000666651 0.000812923 0.000775222 0.000930056 0.000812923 0.00097482 0.000930056 0.00111229 0.000775222 0.000930056 0.000855517 0.00102217 0.00018662 0 0.000151092 0 0.00050444 0.000532722 0.000519117 0.000544475 0.000532722 0.000561003 0.000544475 0.000558844 0.000519117 0.000544475 0.000538468 0.000547576 0.000544475 0.000558844 0.000547576 0.000556684 0.000587007 0.000675978 0.00085423 0.000992782 0.000675978 0.000764948 0.000992782 0.00111355 0.00085423 0.000992782 0.00112145 0.00128807 0.000992782 0.00111355 0.00128807 0.00146215 0.00112145 0.00128807 0.00135004 0.00155168 0.000267707 0.000320127 0.000306651 0.000360644 0.000320127 0.000372547 0.000360644 0.000424912 0.000306651 0.000360644 0.000345594 0.000400104 0.000360644 0.000424912 0.000400104 0.000465983 0.000372547 0.000452252 0.000424912 0.000501188 0.000452252 0.000531956 0.000501188 0.000598045 0.000424912 0.000501188 0.000465983 0.000545606 0.000501188 0.000598045 0.000545606 0.000642847 0 0 0.000382474 0.000426509 0 0 0.000426509 0.000461172 0.000382474 0.000426509 0.000764948 0.000840871 0.000426509 0.000461172 0.000840871 0.000916794 0 0 0.000461172 0.000486943 0 0 0.000486943 0.00049906 0.000461172 0.000486943 0.000916794 0.000962664 0.000486943 0.00049906 0.000962664 0.000987282 0.000666941 0.000738692 0.000632566 0.000680621 0.000738692 0.000826793 0.000680621 0.000734412 0.000632566 0.000680621 0.000598192 0.00061039 0.000680621 0.000734412 0.00061039 0.000621914 0.000598192 0.00061039 0.000556551 0.00053693 0.00061039 0.000621914 0.00053693 0.000503278 0.000556551 0.00053693 0.00051491 0.000470715 0.00053693 0.000503278 0.000470715 0.000395443 0.000395118 0.000467167 0.00040217 0.000492811 0.000467167 0.000539216 0.000492811 0.000586358 0.00040217 0.000492811 0.000409221 0.000526841 0.000492811 0.000586358 0.000526841 0.000680953 0.000501016 0.000534361 0.000520116 0.000559446 0.000534361 0.000567705 0.000559446 0.000583167 0.000520116 0.000559446 0.000539216 0.000596487 0.000559446 0.000583167 0.000596487 0.000635536 0.000539216 0.000596487 0.000586358 0.000684601 0.000596487 0.000635536 0.000684601 0.000776738 0.000586358 0.000684601 0.000680953 0.0008863 0.000684601 0.000776738 0.0008863 0.00112267 0.000209807 0.000309514 0.00020341 0.00030548 0.000309514 0.000409221 0.00030548 0.000418285 0.00020341 0.00030548 0.000197014 0.00029691 0.00030548 0.000418285 0.00029691 0.000423239 0.000409221 0.000526841 0.000418285 0.000575495 0.000526841 0.000680953 0.000575495 0.000836618 0.000418285 0.000575495 0.000423239 0.000631026 0.000575495 0.000836618 0.000631026 0.0010351 0.000680953 0.0008863 0.000836618 0.00127955 0.0008863 0.00112267 0.00127955 0.00186331 0.000836618 0.00127955 0.0010351 0.00182467 0.00127955 0.00186331 0.00182467 0.00326264 0.000567705 0.000563205 0.000583167 0.000591114 0.000563205 0.000558705 0.000591114 0.000573435 0.00051491 0.000470715 0.000490221 0.00041861 0.000470715 0.000395443 0.00041861 0.00032053 0.000490221 0.00041861 0.000465532 0.00038711 0.00041861 0.00032053 0.00038711 0.000283073 0.000558705 0.000512118 0.000573435 0.000536008 0.000512118 0.000465532 0.000536008 0.000469514 0.000197014 0.00029691 0.000183105 0.00028523 0.000183105 0.00028523 0.000169196 0.00026166 0.000465532 0.00038711 0.000469514 0.000384561 0.00038711 0.000283073 0.000384561 0.000273931 0.000469514 0.000384561 0.000546884 0.000451198 0.000384561 0.000273931 0.000451198 0.000323854 0.000283073 0.000151092 0.000273931 0.000143256 0.000151092 0 0.000143256 0 0.000273931 0.000143256 0.000323854 0.00017014 0.000143256 0 0.00017014 0 0.000169196 0.00026166 0.000142238 0.00023407 0.00026166 0.000407442 0.00023407 0.000380759 0.000142238 0.00023407 0.000115279 0.00022168 0.00023407 0.000380759 0.00022168 0.00032808 0.000345594 0.000400104 0.000377182 0.000434942 0.000400104 0.000465983 0.000434942 0.000500526 0.000377182 0.000434942 0.00040877 0.000467465 0.000434942 0.000500526 0.000467465 0.00052616 0.000465983 0.000545606 0.000500526 0.000578172 0.000545606 0.000642847 0.000578172 0.000674469 0.000500526 0.000578172 0.00052616 0.000598891 0.000578172 0.000674469 0.000598891 0.000688166 0.00052616 0.000598891 0.000540515 0.000608567 0.000598891 0.000688166 0.000608567 0.000685881 0.000540515 0.000608567 0.00055487 0.000610906 0.000608567 0.000685881 0.000610906 0.000666941 0.000196573 0.00024362 0.000288085 0.000354034 0.00024362 0.000290666 0.000354034 0.000424373 0.000288085 0.000354034 0.000379597 0.000468838 0.000354034 0.000424373 0.000468838 0.00055808 0.000635536 0.00065792 0.000776738 0.000847864 0.00065792 0.000650492 0.000847864 0.000881055 0.000776738 0.000847864 0.00112267 0.00133839 0.000847864 0.000881055 0.00133839 0.00147804 0.00198474 0.00223893 0.001834 0.00206525 0.0016048 0.001834 0.00140305 0.00159872 0.000650492 0.000616638 0.000881055 0.000866997 0.000616638 0.000546884 0.000866997 0.000802336 0.000881055 0.000866997 0.00147804 0.00152039 0.000866997 0.000802336 0.00152039 0.00146422 0.00112267 0.00133839 0.00186331 0.00242667 0.00133839 0.00147804 0.00242667 0.00280404 0.00186331 0.00242667 0.00326264 0.00468094 0.00242667 0.00280404 0.00468094 0.00540582 0.00147804 0.00152039 0.00280404 0.00294876 0.00152039 0.00146422 0.00294876 0.00290873 0.00280404 0.00294876 0.00540582 0.00568977 0.00294876 0.00290873 0.00568977 0.00567063 0.00140305 0.00159872 0.00112861 0.00128017 0.00128017 0.00143608 0.000896443 0.00100359 0.000546884 0.000451198 0.000802336 0.000684121 0.000451198 0.000323854 0.000684121 0.000506325 0.000802336 0.000684121 0.00146422 0.00130331 0.000684121 0.000506325 0.00130331 0.00100731 0.000323854 0.00017014 0.000506325 0.000271507 0.00017014 0 0.000271507 0 0.000506325 0.000271507 0.00100731 0.000558763 0.000271507 0 0.000558763 0 0.00146422 0.00130331 0.00290873 0.00267927 0.00130331 0.00100731 0.00267927 0.00217236 0.00290873 0.00267927 0.00567063 0.00535518 0.00267927 0.00217236 0.00535518 0.00456647 0.00100731 0.000558763 0.00217236 0.00125063 0.000558763 0 0.00125063 0 0.00217236 0.00125063 0.00456647 0.00295483 0.00125063 0 0.00295483 0 0.000198694 0.000285874 0.000204584 0.000298974 0.000285874 0.000373054 0.000298974 0.000384086 0.000204584 0.000298974 0.000210474 0.000302796 0.000298974 0.000384086 0.000302796 0.000395118 0.000423239 0.000631026 0.000423769 0.000678061 0.000631026 0.0010351 0.000678061 0.00122452 0.000423769 0.000678061 0.000407442 0.000700462 0.000678061 0.00122452 0.000700462 0.00135047 0.0010351 0.00182467 0.00122452 0.00236012 0.00182467 0.00326264 0.00236012 0.00465214 0.00122452 0.00236012 0.00135047 0.00272101 0.00236012 0.00465214 0.00272101 0.00535854 0.000407442 0.000700462 0.000380759 0.00068817 0.000700462 0.00135047 0.00068817 0.00139049 0.000380759 0.00068817 0.00032808 0.000638158 0.00068817 0.00139049 0.000638158 0.00134375 0.00135047 0.00272101 0.00139049 0.00285958 0.00272101 0.00535854 0.00285958 0.00563321 0.00139049 0.00285958 0.00134375 0.00282362 0.00285958 0.00563321 0.00282362 0.00561375 0.0104657 0.00998038 0.00997685 0.00953477 0.00998038 0.00860336 0.00953477 0.00825441 0.00997685 0.00953477 0.00859956 0.00825323 0.00953477 0.00825441 0.00825323 0.00722229 0.00860336 0.00562425 0.00825441 0.00543534 0.00562425 0 0.00543534 0 0.00825441 0.00543534 0.00722229 0.00484543 0.00543534 0 0.00484543 0 0.00859956 0.00825323 0.00562186 0.00543438 0.00825323 0.00722229 0.00543438 0.00484518 0.00562186 0.00543438 0 0 0.00543438 0.00484518 0 0 0.00722229 0.00484543 0.00484518 0.00343728 0.00484543 0 0.00343728 0 0.00484518 0.00343728 0 0 0.00343728 0 0 0 0.00032808 0.000638158 0.000261211 0.000547436 0.000638158 0.00134375 0.000547436 0.00120214 0.000261211 0.000547436 0.000194341 0.000407615 0.000547436 0.00120214 0.000407615 0.000934557 0.00134375 0.00282362 0.00120214 0.00260673 0.00282362 0.00561375 0.00260673 0.00530523 0.00120214 0.00260673 0.000934557 0.00211977 0.00260673 0.00530523 0.00211977 0.00452968 0.000194341 0.000407615 9.71706e-05 0.000220302 0.000407615 0.000934557 0.000220302 0.000520614 9.71706e-05 0.000220302 0 0 0.000220302 0.000520614 0 0 0.000934557 0.00211977 0.000520614 0.00122295 0.00211977 0.00452968 0.00122295 0.00293531 0.000520614 0.00122295 0 0 0.00122295 0.00293531 0 0 0.00189053 0.00187883 0.00227693 0.00226372 0.00187883 0.00179975 0.00226372 0.00216548 0.00227693 0.00226372 0.00259858 0.00258229 0.00113365 0.000788193 0.00136465 0.000950111 0.00136465 0.000950111 0.0015599 0.00108489 0.00326264 0.00468094 0.00465214 0.00692543 0.00468094 0.00540582 0.00692543 0.00799824 0.00465214 0.00692543 0.00535854 0.00797868 0.00692543 0.00799824 0.00797868 0.00928953 0.00540582 0.00568977 0.00799824 0.00842201 0.00568977 0.00567063 0.00842201 0.00842449 0.00799824 0.00842201 0.00928953 0.00981604 0.00842201 0.00842449 0.00981604 0.00984032 0.00535854 0.00797868 0.00563321 0.00839099 0.00797868 0.00928953 0.00839099 0.00980352 0.00563321 0.00839099 0.00561375 0.00838977 0.00839099 0.00980352 0.00838977 0.00982196 0.0015599 0.00108489 0.00170485 0.00118499 0.000556873 0 0.00060797 0 0.00060797 0 0.000638618 0 0.00229395 0.00254028 0.0023144 0.00256288 0.0023144 0.00256288 0.00223893 0.00247674 0.00179512 0.00198443 0.00143608 0.00158399 0.00171432 0.00181182 0.00119641 0.0012616 0.00928953 0.00981604 0.00980352 0.0103853 0.00981604 0.00984032 0.0103853 0.0104133 0.00980352 0.0103853 0.00982196 0.0104066 0.0103853 0.0104133 0.0104066 0.0104657 0.000614535 0.000647699 0 0 0.000647699 0.000665312 0 0 0.00567063 0.00535518 0.00842449 0.00802866 0.00535518 0.00456647 0.00802866 0.00695696 0.00842449 0.00802866 0.00984032 0.0093696 0.00802866 0.00695696 0.0093696 0.00810802 0.00456647 0.00295483 0.00695696 0.00465674 0.00295483 0 0.00465674 0 0.00695696 0.00465674 0.00810802 0.00533764 0.00465674 0 0.00533764 0 0.00810802 0.00533764 0.0085242 0.0056039 0.00533764 0 0.0056039 0 0.0085242 0.0056039 0.00860336 0.00562425 0.0056039 0 0.00562425 0 0.00561375 0.00838977 0.00530523 0.00799651 0.00838977 0.00982196 0.00799651 0.00935044 0.00530523 0.00799651 0.00452968 0.00693261 0.00799651 0.00935044 0.00693261 0.00809301 0.00452968 0.00693261 0.00293531 0.00464364 0.00693261 0.00809301 0.00464364 0.00532938 0.00293531 0.00464364 0 0 0.00464364 0.00532938 0 0 0.00809301 0.00851613 0.00532938 0.00559917 0.00851613 0.00859956 0.00559917 0.00562186 0.00532938 0.00559917 0 0 0.00559917 0.00562186 0 0 0.00143959 0.00126834 0.00126997 0.0011162 0.00126834 0.00108255 0.0011162 0.000951985 0.00108255 0.000886158 0.000951985 0.000781589 0.00126997 0.0011162 0.00108502 0.000952945 0.00108502 0.000952945 0.000888855 0.000782968 0.0011162 0.000951985 0.000952945 0.000812558 0.000951985 0.000781589 0.000812558 0.000667867 0.000952945 0.000812558 0.000782968 0.000668378 0.000812558 0.000667867 0.000668378 0.000548957 0.000234155 0 0.000205036 0 0.000205036 0 0.000178461 0 0.000743037 0.000667331 0.000917128 0.000833456 0.000667331 0.000591626 0.000833456 0.000730153 0.000917128 0.000833456 0.00109526 0.000983819 0.000833456 0.000730153 0.000983819 0.000872377 0.000235124 0.000205632 0 0 0.000205632 0.0001788 0 0 0.000284875 0.000140656 0.000216958 0.000103821 0.000140656 0 0.000103821 0 0.000216958 0.000103821 0.000145869 7.11396e-05 0.000103821 0 7.11396e-05 0 0.000285148 0.000217037 0.000140828 0.000103889 0.000217037 0.000145869 0.000103889 7.11563e-05 0.000140828 0.000103889 0 0 0.000103889 7.11563e-05 0 0 0.000145869 7.11396e-05 7.11563e-05 3.59785e-05 7.11396e-05 0 3.59785e-05 0 7.11563e-05 3.59785e-05 0 0 3.59785e-05 0 0 0 0.000591626 0.000502415 0.000730153 0.000626646 0.000502415 0.000413204 0.000626646 0.000509733 0.000730153 0.000626646 0.000872377 0.000739319 0.000626646 0.000509733 0.000739319 0.000606262 0.00226372 0.0022146 0.002423 0.00238743 0.0022146 0.00216548 0.00238743 0.00232461 0.002423 0.00238743 0.00258229 0.00253572 0.00238743 0.00232461 0.00253572 0.00246969 0.00200114 0.00210868 0.00209298 0.00221756 0.00210868 0.00221621 0.00221756 0.00231786 0.00209298 0.00221756 0.00218482 0.00230216 0.00221756 0.00231786 0.00230216 0.0024195 0.00253297 0.00256578 0.00264825 0.0027012 0.00256578 0.00259858 0.0027012 0.0027226 0.00264825 0.0027012 0.00276353 0.00280599 0.0027012 0.0027226 0.00280599 0.00283255 0.00216548 0.00208375 0.00232461 0.00223843 0.00208375 0.00197948 0.00223843 0.00212937 0.00232461 0.00223843 0.00246969 0.00237788 0.00223843 0.00212937 0.00237788 0.00226093 0.00197948 0.0018576 0.00212937 0.00199438 0.0018576 0.00171065 0.00199438 0.00184014 0.00212937 0.00199438 0.00226093 0.00212001 0.00199438 0.00184014 0.00212001 0.00195489 0.00262063 0.00269208 0.00268372 0.00277505 0.00269208 0.00276353 0.00277505 0.00284143 0.00268372 0.00277505 0.00274681 0.00282805 0.00277505 0.00284143 0.00282805 0.00289654 0.00283255 0.00283828 0.0029179 0.00292043 0.00283828 0.00281571 0.00292043 0.00290129 0.00292043 0.00290129 0.00297823 0.00295745 0.00281571 0.00277112 0.00290129 0.00285354 0.00277112 0.00269788 0.00285354 0.00277869 0.00290129 0.00285354 0.00295745 0.00291022 0.00285354 0.00277869 0.00291022 0.00283354 0.00276353 0.00280599 0.00284143 0.00289238 0.00280599 0.00283255 0.00289238 0.0029179 0.00284143 0.00289238 0.00289654 0.00294579 0.00289238 0.0029179 0.00294579 0.00297021 0.00269788 0.00259762 0.00277869 0.00267703 0.00259762 0.00247107 0.00267703 0.00254476 0.00277869 0.00267703 0.00283354 0.00272832 0.00267703 0.00254476 0.00272832 0.00259544 0.00295745 0.00291022 0.00298777 0.00293511 0.00291022 0.00283354 0.00293511 0.00286019 0.00247107 0.0023152 0.00254476 0.00238733 0.0023152 0.00213608 0.00238733 0.00219921 0.00254476 0.00238733 0.00259544 0.00243183 0.00238733 0.00219921 0.00243183 0.00224397 0.00300226 0.00300646 0.00296938 0.00297267 0.00296938 0.00297267 0.00290346 0.00290657 0.00297267 0.00294963 0.00290657 0.00289096 0.00294963 0.00289953 0.00289096 0.00284099 0.00289953 0.00282844 0.00284099 0.00276677 0.00283354 0.00272832 0.00286019 0.00275619 0.00272832 0.00259544 0.00275619 0.00261771 0.00286019 0.00275619 0.00285832 0.00275477 0.00275619 0.00261771