# vtk DataFile Version 3.0
#This file was generated by the deal.II library on 2021/4/23 at 0:45:41
ASCII
DATASET UNSTRUCTURED_GRID

FIELD FieldData 2
CYCLE 1 1 int
62
TIME 1 1 double
0.124
POINTS 1824 double
-1 -1 0
-0.75 -1 0
-1 -0.75 0
-0.75 -0.75 0
-0.75 -1 0
-0.5 -1 0
-0.75 -0.75 0
-0.5 -0.75 0
-1 -0.75 0
-0.75 -0.75 0
-1 -0.5 0
-0.75 -0.5 0
-0.75 -0.75 0
-0.5 -0.75 0
-0.75 -0.5 0
-0.5 -0.5 0
-0.5 -1 0
-0.25 -1 0
-0.5 -0.75 0
-0.25 -0.75 0
-0.25 -1 0
0 -1 0
-0.25 -0.75 0
0 -0.75 0
-1 -0.5 0
-0.75 -0.5 0
-1 -0.25 0
-0.75 -0.25 0
-0.75 -0.5 0
-0.5 -0.5 0
-0.75 -0.25 0
-0.5 -0.25 0
-1 -0.25 0
-0.75 -0.25 0
-1 0 0
-0.75 0 0
-0.75 -0.25 0
-0.5 -0.25 0
-0.75 0 0
-0.5 0 0
-0.5 -0.25 0
-0.25 -0.25 0
-0.5 0 0
-0.25 0 0
0 -1 0
0.25 -1 0
0 -0.75 0
0.25 -0.75 0
-1 0 0
-0.75 0 0
-1 0.25 0
-0.75 0.25 0
0.875 -0.75 0
1 -0.75 0
0.875 -0.625 0
1 -0.625 0
0.875 -0.625 0
1 -0.625 0
0.875 -0.5 0
1 -0.5 0
0.25 -0.125 0
0.375 -0.125 0
0.25 0 0
0.375 0 0
0.375 -0.125 0
0.5 -0.125 0
0.375 0 0
0.5 0 0
0.25 -0.75 0
0.375 -0.75 0
0.25 -0.625 0
0.375 -0.625 0
0.25 -0.625 0
0.375 -0.625 0
0.25 -0.5 0
0.375 -0.5 0
0.375 -0.625 0
0.5 -0.625 0
0.375 -0.5 0
0.5 -0.5 0
0.5 -1 0
0.625 -1 0
0.5 -0.875 0
0.625 -0.875 0
0.625 -1 0
0.75 -1 0
0.625 -0.875 0
0.75 -0.875 0
0.5 -0.875 0
0.625 -0.875 0
0.5 -0.75 0
0.625 -0.75 0
0.625 -0.875 0
0.75 -0.875 0
0.625 -0.75 0
0.75 -0.75 0
0.75 -1 0
0.875 -1 0
0.75 -0.875 0
0.875 -0.875 0
0.875 -1 0
1 -1 0
0.875 -0.875 0
1 -0.875 0
0.75 -0.875 0
0.875 -0.875 0
0.75 -0.75 0
0.875 -0.75 0
0.875 -0.875 0
1 -0.875 0
0.875 -0.75 0
1 -0.75 0
0 -0.5 0
0.125 -0.5 0
0 -0.375 0
0.125 -0.375 0
0.125 -0.5 0
0.25 -0.5 0
0.125 -0.375 0
0.25 -0.375 0
0 -0.375 0
0.125 -0.375 0
0 -0.25 0
0.125 -0.25 0
0.125 -0.375 0
0.25 -0.375 0
0.125 -0.25 0
0.25 -0.25 0
0 -0.25 0
0.125 -0.25 0
0 -0.125 0
0.125 -0.125 0
0.125 -0.25 0
0.25 -0.25 0
0.125 -0.125 0
0.25 -0.125 0
0.125 -0.125 0
0.25 -0.125 0
0.125 0 0
0.25 0 0
0.25 -1 0
0.375 -1 0
0.25 -0.875 0
0.375 -0.875 0
0.375 -1 0
0.5 -1 0
0.375 -0.875 0
0.5 -0.875 0
0.25 -0.875 0
0.375 -0.875 0
0.25 -0.75 0
0.375 -0.75 0
0.375 -0.875 0
0.5 -0.875 0
0.375 -0.75 0
0.5 -0.75 0
0 -0.75 0
0.125 -0.75 0
0 -0.625 0
0.125 -0.625 0
0.125 -0.75 0
0.25 -0.75 0
0.125 -0.625 0
0.25 -0.625 0
0 -0.625 0
0.125 -0.625 0
0 -0.5 0
0.125 -0.5 0
0.125 -0.625 0
0.25 -0.625 0
0.125 -0.5 0
0.25 -0.5 0
-0.25 -0.5 0
-0.125 -0.5 0
-0.25 -0.375 0
-0.125 -0.375 0
-0.125 -0.5 0
0 -0.5 0
-0.125 -0.375 0
0 -0.375 0
-0.25 -0.375 0
-0.125 -0.375 0
-0.25 -0.25 0
-0.125 -0.25 0
-0.125 -0.375 0
0 -0.375 0
-0.125 -0.25 0
0 -0.25 0
-0.25 -0.25 0
-0.125 -0.25 0
-0.25 -0.125 0
-0.125 -0.125 0
-0.125 -0.25 0
0 -0.25 0
-0.125 -0.125 0
0 -0.125 0
-0.25 -0.125 0
-0.125 -0.125 0
-0.25 0 0
-0.125 0 0
-0.75 0 0
-0.625 0 0
-0.75 0.125 0
-0.625 0.125 0
-0.625 0 0
-0.5 0 0
-0.625 0.125 0
-0.5 0.125 0
-0.75 0.125 0
-0.625 0.125 0
-0.75 0.25 0
-0.625 0.25 0
-0.625 0.125 0
-0.5 0.125 0
-0.625 0.25 0
-0.5 0.25 0
-0.25 -0.75 0
-0.125 -0.75 0
-0.25 -0.625 0
-0.125 -0.625 0
-0.125 -0.75 0
0 -0.75 0
-0.125 -0.625 0
0 -0.625 0
-0.25 -0.625 0
-0.125 -0.625 0
-0.25 -0.5 0
-0.125 -0.5 0
-0.125 -0.625 0
0 -0.625 0
-0.125 -0.5 0
0 -0.5 0
-1 0.25 0
-0.875 0.25 0
-1 0.375 0
-0.875 0.375 0
-0.875 0.25 0
-0.75 0.25 0
-0.875 0.375 0
-0.75 0.375 0
-1 0.375 0
-0.875 0.375 0
-1 0.5 0
-0.875 0.5 0
-0.875 0.375 0
-0.75 0.375 0
-0.875 0.5 0
-0.75 0.5 0
-0.5 -0.75 0
-0.375 -0.75 0
-0.5 -0.625 0
-0.375 -0.625 0
-0.375 -0.75 0
-0.25 -0.75 0
-0.375 -0.625 0
-0.25 -0.625 0
-0.5 -0.625 0
-0.375 -0.625 0
-0.5 -0.5 0
-0.375 -0.5 0
-0.375 -0.625 0
-0.25 -0.625 0
-0.375 -0.5 0
-0.25 -0.5 0
-0.5 -0.5 0
-0.375 -0.5 0
-0.5 -0.375 0
-0.375 -0.375 0
-0.375 -0.5 0
-0.25 -0.5 0
-0.375 -0.375 0
-0.25 -0.375 0
-0.5 -0.375 0
-0.375 -0.375 0
-0.5 -0.25 0
-0.375 -0.25 0
-0.375 -0.375 0
-0.25 -0.375 0
-0.375 -0.25 0
-0.25 -0.25 0
-0.75 0.25 0
-0.625 0.25 0
-0.75 0.375 0
-0.625 0.375 0
-0.625 0.25 0
-0.5 0.25 0
-0.625 0.375 0
-0.5 0.375 0
-0.75 0.375 0
-0.625 0.375 0
-0.75 0.5 0
-0.625 0.5 0
-0.625 0.375 0
-0.5 0.375 0
-0.625 0.5 0
-0.5 0.5 0
-0.25 0 0
-0.125 0 0
-0.25 0.125 0
-0.125 0.125 0
-0.25 0.125 0
-0.125 0.125 0
-0.25 0.25 0
-0.125 0.25 0
-0.125 0.125 0
0 0.125 0
-0.125 0.25 0
0 0.25 0
-1 0.75 0
-0.875 0.75 0
-1 0.875 0
-0.875 0.875 0
-0.875 0.75 0
-0.75 0.75 0
-0.875 0.875 0
-0.75 0.875 0
-1 0.875 0
-0.875 0.875 0
-1 1 0
-0.875 1 0
-0.875 0.875 0
-0.75 0.875 0
-0.875 1 0
-0.75 1 0
-0.5 0 0
-0.375 0 0
-0.5 0.125 0
-0.375 0.125 0
-0.375 0 0
-0.25 0 0
-0.375 0.125 0
-0.25 0.125 0
-0.5 0.125 0
-0.375 0.125 0
-0.5 0.25 0
-0.375 0.25 0
-0.375 0.125 0
-0.25 0.125 0
-0.375 0.25 0
-0.25 0.25 0
-0.125 0.25 0
0 0.25 0
-0.125 0.375 0
0 0.375 0
-0.375 0.25 0
-0.25 0.25 0
-0.375 0.375 0
-0.25 0.375 0
-0.375 0.375 0
-0.25 0.375 0
-0.375 0.5 0
-0.25 0.5 0
-1 0.5 0
-0.875 0.5 0
-1 0.625 0
-0.875 0.625 0
-0.875 0.5 0
-0.75 0.5 0
-0.875 0.625 0
-0.75 0.625 0
-1 0.625 0
-0.875 0.625 0
-1 0.75 0
-0.875 0.75 0
-0.875 0.625 0
-0.75 0.625 0
-0.875 0.75 0
-0.75 0.75 0
-0.75 0.625 0
-0.625 0.625 0
-0.75 0.75 0
-0.625 0.75 0
-0.625 0.625 0
-0.5 0.625 0
-0.625 0.75 0
-0.5 0.75 0
-0.75 0.875 0
-0.625 0.875 0
-0.75 1 0
-0.625 1 0
0.75 -0.5 0
0.8125 -0.5 0
0.75 -0.4375 0
0.8125 -0.4375 0
0.8125 -0.5 0
0.875 -0.5 0
0.8125 -0.4375 0
0.875 -0.4375 0
0.75 -0.4375 0
0.8125 -0.4375 0
0.75 -0.375 0
0.8125 -0.375 0
0.8125 -0.4375 0
0.875 -0.4375 0
0.8125 -0.375 0
0.875 -0.375 0
0.75 -0.375 0
0.8125 -0.375 0
0.75 -0.3125 0
0.8125 -0.3125 0
0.8125 -0.375 0
0.875 -0.375 0
0.8125 -0.3125 0
0.875 -0.3125 0
0.75 -0.3125 0
0.8125 -0.3125 0
0.75 -0.25 0
0.8125 -0.25 0
0.8125 -0.3125 0
0.875 -0.3125 0
0.8125 -0.25 0
0.875 -0.25 0
0.875 -0.375 0
0.9375 -0.375 0
0.875 -0.3125 0
0.9375 -0.3125 0
0.9375 -0.375 0
1 -0.375 0
0.9375 -0.3125 0
1 -0.3125 0
0.875 -0.3125 0
0.9375 -0.3125 0
0.875 -0.25 0
0.9375 -0.25 0
0.9375 -0.3125 0
1 -0.3125 0
0.9375 -0.25 0
1 -0.25 0
0.5 -0.25 0
0.5625 -0.25 0
0.5 -0.1875 0
0.5625 -0.1875 0
0.5625 -0.25 0
0.625 -0.25 0
0.5625 -0.1875 0
0.625 -0.1875 0
0.5 -0.1875 0
0.5625 -0.1875 0
0.5 -0.125 0
0.5625 -0.125 0
0.5625 -0.1875 0
0.625 -0.1875 0
0.5625 -0.125 0
0.625 -0.125 0
0.625 -0.25 0
0.6875 -0.25 0
0.625 -0.1875 0
0.6875 -0.1875 0
0.6875 -0.25 0
0.75 -0.25 0
0.6875 -0.1875 0
0.75 -0.1875 0
0.625 -0.1875 0
0.6875 -0.1875 0
0.625 -0.125 0
0.6875 -0.125 0
0.6875 -0.1875 0
0.75 -0.1875 0
0.6875 -0.125 0
0.75 -0.125 0
0.625 -0.125 0
0.6875 -0.125 0
0.625 -0.0625 0
0.6875 -0.0625 0
0.6875 -0.125 0
0.75 -0.125 0
0.6875 -0.0625 0
0.75 -0.0625 0
0.625 -0.0625 0
0.6875 -0.0625 0
0.625 0 0
0.6875 0 0
0.6875 -0.0625 0
0.75 -0.0625 0
0.6875 0 0
0.75 0 0
0.75 -0.25 0
0.8125 -0.25 0
0.75 -0.1875 0
0.8125 -0.1875 0
0.8125 -0.25 0
0.875 -0.25 0
0.8125 -0.1875 0
0.875 -0.1875 0
0.75 -0.1875 0
0.8125 -0.1875 0
0.75 -0.125 0
0.8125 -0.125 0
0.8125 -0.1875 0
0.875 -0.1875 0
0.8125 -0.125 0
0.875 -0.125 0
0.875 -0.25 0
0.9375 -0.25 0
0.875 -0.1875 0
0.9375 -0.1875 0
0.9375 -0.25 0
1 -0.25 0
0.9375 -0.1875 0
1 -0.1875 0
0.875 -0.1875 0
0.9375 -0.1875 0
0.875 -0.125 0
0.9375 -0.125 0
0.9375 -0.1875 0
1 -0.1875 0
0.9375 -0.125 0
1 -0.125 0
0.75 -0.125 0
0.8125 -0.125 0
0.75 -0.0625 0
0.8125 -0.0625 0
0.8125 -0.125 0
0.875 -0.125 0
0.8125 -0.0625 0
0.875 -0.0625 0
0.75 -0.0625 0
0.8125 -0.0625 0
0.75 0 0
0.8125 0 0
0.8125 -0.0625 0
0.875 -0.0625 0
0.8125 0 0
0.875 0 0
0.5 -0.5 0
0.5625 -0.5 0
0.5 -0.4375 0
0.5625 -0.4375 0
0.5625 -0.5 0
0.625 -0.5 0
0.5625 -0.4375 0
0.625 -0.4375 0
0.5 -0.4375 0
0.5625 -0.4375 0
0.5 -0.375 0
0.5625 -0.375 0
0.5625 -0.4375 0
0.625 -0.4375 0
0.5625 -0.375 0
0.625 -0.375 0
0.625 -0.5 0
0.6875 -0.5 0
0.625 -0.4375 0
0.6875 -0.4375 0
0.6875 -0.5 0
0.75 -0.5 0
0.6875 -0.4375 0
0.75 -0.4375 0
0.625 -0.4375 0
0.6875 -0.4375 0
0.625 -0.375 0
0.6875 -0.375 0
0.6875 -0.4375 0
0.75 -0.4375 0
0.6875 -0.375 0
0.75 -0.375 0
0.5 -0.375 0
0.5625 -0.375 0
0.5 -0.3125 0
0.5625 -0.3125 0
0.5625 -0.375 0
0.625 -0.375 0
0.5625 -0.3125 0
0.625 -0.3125 0
0.5 -0.3125 0
0.5625 -0.3125 0
0.5 -0.25 0
0.5625 -0.25 0
0.5625 -0.3125 0
0.625 -0.3125 0
0.5625 -0.25 0
0.625 -0.25 0
0.625 -0.375 0
0.6875 -0.375 0
0.625 -0.3125 0
0.6875 -0.3125 0
0.6875 -0.375 0
0.75 -0.375 0
0.6875 -0.3125 0
0.75 -0.3125 0
0.625 -0.3125 0
0.6875 -0.3125 0
0.625 -0.25 0
0.6875 -0.25 0
0.6875 -0.3125 0
0.75 -0.3125 0
0.6875 -0.25 0
0.75 -0.25 0
0.875 -0.5 0
0.9375 -0.5 0
0.875 -0.4375 0
0.9375 -0.4375 0
0.9375 -0.5 0
1 -0.5 0
0.9375 -0.4375 0
1 -0.4375 0
0.875 -0.4375 0
0.9375 -0.4375 0
0.875 -0.375 0
0.9375 -0.375 0
0.9375 -0.4375 0
1 -0.4375 0
0.9375 -0.375 0
1 -0.375 0
0.5 -0.125 0
0.5625 -0.125 0
0.5 -0.0625 0
0.5625 -0.0625 0
0.5625 -0.125 0
0.625 -0.125 0
0.5625 -0.0625 0
0.625 -0.0625 0
0.5 -0.0625 0
0.5625 -0.0625 0
0.5 0 0
0.5625 0 0
0.5625 -0.0625 0
0.625 -0.0625 0
0.5625 0 0
0.625 0 0
0.875 -0.125 0
0.9375 -0.125 0
0.875 -0.0625 0
0.9375 -0.0625 0
0.9375 -0.125 0
1 -0.125 0
0.9375 -0.0625 0
1 -0.0625 0
0.875 -0.0625 0
0.9375 -0.0625 0
0.875 0 0
0.9375 0 0
0.9375 -0.0625 0
1 -0.0625 0
0.9375 0 0
1 0 0
0.625 -0.75 0
0.6875 -0.75 0
0.625 -0.6875 0
0.6875 -0.6875 0
0.6875 -0.75 0
0.75 -0.75 0
0.6875 -0.6875 0
0.75 -0.6875 0
0.625 -0.6875 0
0.6875 -0.6875 0
0.625 -0.625 0
0.6875 -0.625 0
0.6875 -0.6875 0
0.75 -0.6875 0
0.6875 -0.625 0
0.75 -0.625 0
0.625 -0.625 0
0.6875 -0.625 0
0.625 -0.5625 0
0.6875 -0.5625 0
0.6875 -0.625 0
0.75 -0.625 0
0.6875 -0.5625 0
0.75 -0.5625 0
0.625 -0.5625 0
0.6875 -0.5625 0
0.625 -0.5 0
0.6875 -0.5 0
0.6875 -0.5625 0
0.75 -0.5625 0
0.6875 -0.5 0
0.75 -0.5 0
0.75 -0.75 0
0.8125 -0.75 0
0.75 -0.6875 0
0.8125 -0.6875 0
0.8125 -0.75 0
0.875 -0.75 0
0.8125 -0.6875 0
0.875 -0.6875 0
0.75 -0.6875 0
0.8125 -0.6875 0
0.75 -0.625 0
0.8125 -0.625 0
0.8125 -0.6875 0
0.875 -0.6875 0
0.8125 -0.625 0
0.875 -0.625 0
0.75 -0.625 0
0.8125 -0.625 0
0.75 -0.5625 0
0.8125 -0.5625 0
0.8125 -0.625 0
0.875 -0.625 0
0.8125 -0.5625 0
0.875 -0.5625 0
0.75 -0.5625 0
0.8125 -0.5625 0
0.75 -0.5 0
0.8125 -0.5 0
0.8125 -0.5625 0
0.875 -0.5625 0
0.8125 -0.5 0
0.875 -0.5 0
0.25 -0.375 0
0.3125 -0.375 0
0.25 -0.3125 0
[...]
POINT_DATA 1824
SCALARS U double 1
LOOKUP_TABLE default
0 0 0 1.47914e-05 0 0 1.47914e-05 7.14687e-05 0 1.47914e-05 0 2.34027e-05 1.47914e-05 7.14687e-05 2.34027e-05 0.00011568 0 0 7.14687e-05 0.000238782 0 0 0.000238782 0.000604262 0 2.34027e-05 0 1.84907e-05 2.34027e-05 0.00011568 1.84907e-05 9.19192e-05 0 1.84907e-05 0 1.15845e-05 1.84907e-05 9.19192e-05 1.15845e-05 5.87493e-05 9.19192e-05 0.000300562 5.87493e-05 0.000143912 0 0 0.000604262 0.00110535 0 1.15845e-05 0 0.000184596 0.000552282 0 0.000745533 0 0.000745533 0 0.000840132 0 0.000701416 0.000822866 0 0 0.000822866 0.000876033 0 0 0.00110535 0.0012936 0.00148558 0.00175031 0.00148558 0.00175031 0.00167336 0.00196629 0.00175031 0.00185565 0.00196629 0.00209085 0 0 0.000727799 0.000679518 0 0 0.000679518 0.000529845 0.000727799 0.000679518 0.00137567 0.00128826 0.000679518 0.000529845 0.00128826 0.00100448 0 0 0.000529845 0.000291115 0 0 0.000291115 0 0.000529845 0.000291115 0.00100448 0.000552282 0.000291115 0 0.000552282 0 0.000922908 0.00129507 0.000889401 0.00124422 0.00129507 0.00167336 0.00124422 0.00160795 0.000889401 0.00124422 0.000712994 0.000986585 0.00124422 0.00160795 0.000986585 0.00127087 0.000712994 0.000986585 0.000416082 0.000549303 0.000986585 0.00127087 0.000549303 0.000701416 0.000549303 0.000701416 0 0 0 0 0.000552675 0.000683002 0 0 0.000683002 0.000727799 0.000552675 0.000683002 0.00110535 0.0012936 0.000683002 0.000727799 0.0012936 0.00137567 0.000604262 0.000854806 0.000822104 0.00115151 0.000854806 0.00110535 0.00115151 0.00148558 0.000822104 0.00115151 0.000922908 0.00129507 0.00115151 0.00148558 0.00129507 0.00167336 0.000372477 0.000609413 0.000367332 0.000590657 0.000609413 0.000922908 0.000590657 0.000889401 0.000367332 0.000590657 0.000300562 0.000484463 0.000590657 0.000889401 0.000484463 0.000712994 0.000300562 0.000484463 0.000222237 0.000311752 0.000484463 0.000712994 0.000311752 0.000416082 0.000222237 0.000311752 0.000143912 0.000155857 1.15845e-05 3.51669e-05 9.80902e-05 0.000103559 3.51669e-05 5.87493e-05 0.000103559 0.00016545 9.80902e-05 0.000103559 0.000184596 0.00048211 0.000103559 0.00016545 0.00048211 0.00078999 0.000238782 0.000421522 0.000333018 0.000541829 0.000421522 0.000604262 0.000541829 0.000822104 0.000333018 0.000541829 0.000372477 0.000609413 0.000541829 0.000822104 0.000609413 0.000922908 0 9.2298e-05 0 9.14509e-05 9.2298e-05 0.000184596 9.14509e-05 0.000475656 0 9.14509e-05 0 0.000141673 9.14509e-05 0.000475656 0.000141673 0.000776026 7.14687e-05 0.000155126 9.35746e-05 0.000187543 0.000155126 0.000238782 0.000187543 0.000333018 9.35746e-05 0.000187543 0.00011568 0.000210653 0.000187543 0.000333018 0.000210653 0.000372477 0.00011568 0.000210653 0.0001038 0.000210598 0.000210653 0.000372477 0.000210598 0.000367332 0.0001038 0.000210598 9.19192e-05 0.000196241 0.000210598 0.000367332 0.000196241 0.000300562 0.000184596 0.00048211 0.000475656 0.00136612 0.00048211 0.00078999 0.00136612 0.00247037 0.000475656 0.00136612 0.000776026 0.00246157 0.00136612 0.00247037 0.00246157 0.00615933 0.000143912 0.000155857 0.000255101 0.000166944 0.000255101 0.000166944 0.000986721 0.000643257 0.000166944 0 0.000643257 0 0 0.000238347 0 0.000141398 0.000238347 0.000976342 0.000141398 0.000619215 0 0.000141398 0 0 0.000141398 0.000619215 0 0 5.87493e-05 0.00010133 0.00016545 0.000234731 0.00010133 0.000143912 0.000234731 0.000255101 0.00016545 0.000234731 0.00078999 0.00100238 0.000234731 0.000255101 0.00100238 0.000986721 0.000643257 0 0.00240701 0 0.00100238 0.000986721 0.00335066 0.00345816 0.00335066 0.00345816 0.00971271 0.010236 0 0.000141673 0 0.000213427 0.000141673 0.000776026 0.000213427 0.000997141 0 0.000213427 0 0.000238347 0.000213427 0.000997141 0.000238347 0.000976342 0.000997141 0.00334555 0.000976342 0.00346436 0.00334555 0.00972565 0.00346436 0.0102428 0.000619215 0.00237197 0 0 0.00152049 0.00120475 0.00152134 0.00120625 0.00120475 0.000840132 0.00120625 0.000835805 0.00152134 0.00120625 0.00146036 0.00115749 0.00120625 0.000835805 0.00115749 0.000802426 0.00146036 0.00115749 0.00133636 0.00105973 0.00115749 0.000802426 0.00105973 0.000734761 0.00133636 0.00105973 0.00115342 0.00091408 0.00105973 0.000734761 0.00091408 0.000634134 0.000802426 0.000410786 0.000734761 0.000376344 0.000410786 0 0.000376344 0 0.000734761 0.000376344 0.000634134 0.000324668 0.000376344 0 0.000324668 0 0.00157879 0.00155485 0.00125492 0.00123677 0.00155485 0.00147705 0.00123677 0.00117452 0.00125492 0.00123677 0.000876033 0.000858603 0.00123677 0.00117452 0.000858603 0.000815619 0.00147705 0.00134248 0.00117452 0.00106775 0.00134248 0.00115342 0.00106775 0.00091675 0.00117452 0.00106775 0.000815619 0.000741805 0.00106775 0.00091675 0.000741805 0.00063723 0.000815619 0.000741805 0.000418043 0.000380331 0.000741805 0.00063723 0.000380331 0.000326621 0.000418043 0.000380331 0 0 0.000380331 0.000326621 0 0 0.00115342 0.00091408 0.00091675 0.000727214 0.00091408 0.000634134 0.000727214 0.000504149 0.00091675 0.000727214 0.00063723 0.000505129 0.000727214 0.000504149 0.000505129 0.000350364 0.000634134 0.000324668 0.000504149 0.000258231 0.000324668 0 0.000258231 0 0.000504149 0.000258231 0.000350364 0.000179373 0.000258231 0 0.000179373 0 0.00063723 0.000505129 0.000326621 0.000259006 0.000505129 0.000350364 0.000259006 0.000179562 0.000326621 0.000259006 0 0 0.000259006 0.000179562 0 0 0.00209085 0.00204844 0.00208151 0.00205063 0.00204844 0.00194643 0.00205063 0.00194826 0.00208151 0.00205063 0.00199769 0.00196856 0.00205063 0.00194826 0.00196856 0.0018698 0.00194643 0.00177094 0.00194826 0.00177092 0.00177094 0.00152049 0.00177092 0.00152134 0.00194826 0.00177092 0.0018698 0.00169955 0.00177092 0.00152134 0.00169955 0.00146036 0.00199769 0.00196856 0.00182989 0.00180183 0.00196856 0.0018698 0.00180183 0.00171159 0.00182989 0.00180183 0.00157879 0.00155485 0.00180183 0.00171159 0.00155485 0.00147705 0.0018698 0.00169955 0.00171159 0.00155578 0.00169955 0.00146036 0.00155578 0.00133636 0.00171159 0.00155578 0.00147705 0.00134248 0.00155578 0.00133636 0.00134248 0.00115342 0.000840132 0.000420066 0.000835805 0.000427656 0.000420066 0 0.000427656 0 0.000835805 0.000427656 0.000802426 0.000410786 0.000427656 0 0.000410786 0 0.000876033 0.000858603 0.000438017 0.000439695 0.000858603 0.000815619 0.000439695 0.000418043 0.000438017 0.000439695 0 0 0.000439695 0.000418043 0 0 0.000350364 0.000179373 0.000179562 9.2077e-05 0.000179373 0 9.2077e-05 0 0.000179562 9.2077e-05 0 0 9.2077e-05 0 0 0 0.00128826 0.00114637 0.00152533 0.00138797 0.00114637 0.00100448 0.00138797 0.00118962 0.00152533 0.00138797 0.00172779 0.00157093 0.00138797 0.00118962 0.00157093 0.0013482 0.00172779 0.00157093 0.00187054 0.00170223 0.00157093 0.0013482 0.00170223 0.0014613 0.00187054 0.00170223 0.00194643 0.00177094 0.00170223 0.0014613 0.00177094 0.00152049 0.00100448 0.000778383 0.00118962 0.000943595 0.000778383 0.000552282 0.000943595 0.000648907 0.00118962 0.000943595 0.0013482 0.00106732 0.000943595 0.000648907 0.00106732 0.000745533 0.0013482 0.00106732 0.0014613 0.00115745 0.00106732 0.000745533 0.00115745 0.000792832 0.0014613 0.00115745 0.00152049 0.00120475 0.00115745 0.000792832 0.00120475 0.000840132 0.00160795 0.00174881 0.00143941 0.00160334 0.00174881 0.00187862 0.00160334 0.00172021 0.00143941 0.00160334 0.00127087 0.00138075 0.00160334 0.00172021 0.00138075 0.0014841 0.00187862 0.00196484 0.00172021 0.00180001 0.00196484 0.00199769 0.00180001 0.00182989 0.00172021 0.00180001 0.0014841 0.00155235 0.00180001 0.00182989 0.00155235 0.00157879 0.00127087 0.00138075 0.000986141 0.00109976 0.00138075 0.0014841 0.00109976 0.00117894 0.000986141 0.00109976 0.000701416 0.000762141 0.00109976 0.00117894 0.000762141 0.000822866 0.0014841 0.00155235 0.00117894 0.00123416 0.00155235 0.00157879 0.00123416 0.00125492 0.00117894 0.00123416 0.000822866 0.00084945 0.00123416 0.00125492 0.00084945 0.000876033 0.00137567 0.00133196 0.00163043 0.00160863 0.00133196 0.00128826 0.00160863 0.00152533 0.00163043 0.00160863 0.00185565 0.00181777 0.00160863 0.00152533 0.00181777 0.00172779 0.00185565 0.00181777 0.00197325 0.00196913 0.00181777 0.00172779 0.00196913 0.00187054 0.00197325 0.00196913 0.00209085 0.00204844 0.00196913 0.00187054 0.00204844 0.00194643 0.000986721 0.000814989 0.00222244 0.00183603 0.000814989 0.000643257 0.00183603 0.00152513 0.00222244 0.00183603 0.00345816 0.00323438 0.00183603 0.00152513 0.00323438 0.00240701 0.00345816 0.00323438 0.00684707 0.00573479 0.00323438 0.00240701 0.00573479 0.00442108 0.00684707 0.00573479 0.010236 0.00936558 0.00573479 0.00442108 0.00936558 0.00765842 0.00167336 0.00181982 0.00164066 0.0018257 0.00181982 0.00196629 0.0018257 0.00195666 0.00164066 0.0018257 0.00160795 0.00174881 0.0018257 0.00195666 0.00174881 0.00187862 0.00196629 0.00202857 0.00195666 0.00204756 0.00202857 0.00209085 0.00204756 0.00208151 0.00195666 0.00204756 0.00187862 0.00196484 0.00204756 0.00208151 0.00196484 0.00199769 0.00240701 0.0012035 0.00442108 0.00242915 0.0012035 0 0.00242915 0 0.00442108 0.00242915 0.00765842 0.00447105 0.00242915 0 0.00447105 0 0.00078999 0.000896186 0.00163018 0.00182966 0.000896186 0.00100238 0.00182966 0.00217652 0.00163018 0.00182966 0.00247037 0.0031538 0.00182966 0.00217652 0.0031538 0.00335066 0.0012936 0.00133463 0.00152196 0.0016061 0.00133463 0.00137567 0.0016061 0.00163043 0.00152196 0.0016061 0.00175031 0.00180298 0.0016061 0.00163043 0.00180298 0.00185565 0.00247037 0.0031538 0.00431485 0.00531182 0.0031538 0.00335066 0.00531182 0.00653169 0.00431485 0.00531182 0.00615933 0.00843006 0.00531182 0.00653169 0.00843006 0.00971271 0.000776026 0.0016188 0.000886584 0.00182162 0.0016188 0.00246157 0.00182162 0.00315117 0.000886584 0.00182162 0.000997141 0.00217135 0.00182162 0.00315117 0.00217135 0.00334555 0.00246157 0.00431045 0.00315117 0.005311 0.00431045 0.00615933 0.005311 0.00842888 0.00315117 0.005311 0.00334555 0.0065356 0.005311 0.00842888 0.0065356 0.00972565 0.000976342 0.00222035 0.000797779 0.00179988 0.00222035 0.00346436 0.00179988 0.00325167 0.000797779 0.00179988 0.000619215 0.00149559 0.00179988 0.00325167 0.00149559 0.00237197 0.00237197 0.00443283 0.00118598 0.00241066 0.00443283 0.007612 0.00241066 0.00447187 0.00118598 0.00241066 0 0 0.00241066 0.00447187 0 0 0.00346436 0.0068536 0.00325167 0.00565097 0.0068536 0.0102428 0.00565097 0.00947233 0.00325167 0.00565097 0.00237197 0.00443283 0.00565097 0.00947233 0.00443283 0.007612 0.00615933 0.00843006 0.00842888 0.011736 0.00843006 0.00971271 0.011736 0.0134394 0.00842888 0.011736 0.00972565 0.0134449 0.00971271 0.00997435 0.0134394 0.0142575 0.00997435 0.010236 0.0142575 0.0142029 0.0134394 0.0142575 0.0157038 0.0166915 0.0142575 0.0142029 0.0166915 0.0166034 0.00972565 0.0134449 0.00998425 0.0142786 0.0134449 0.0157038 0.0142786 0.0167113 0.00998425 0.0142786 0.0102428 0.0142246 0.0142786 0.0167113 0.0142246 0.0166102 0.000416082 0.000482692 0.000236232 0.000248487 0.000482692 0.000549303 0.000248487 0.000274651 0.000236232 0.000248487 0 0 0.000248487 0.000274651 0 0 0.0157038 0.0166915 0.0167113 0.017793 0.0166915 0.0166034 0.017793 0.0176803 0.0167113 0.017793 0.0166102 0.0176767 0.017793 0.0176803 0.0176767 0.0175791 0.010236 0.00936558 0.0142029 0.0131981 0.00447105 0 0.00681836 0 0.000311752 0.000363917 0.000233804 0.000233067 0.000363917 0.000416082 0.000233067 0.000236232 0.000233804 0.000233067 0.000155857 0.000134458 0.000233067 0.000236232 0.000134458 0 0.0102428 0.0142246 0.00947233 0.0131702 0.0166102 0.0176767 0.0153126 0.0162891 0.00447187 0.00681571 0 0 0.000155857 0.000134458 0.0001614 8.31354e-05 0.000134458 0 8.31354e-05 0 0.0001614 8.31354e-05 0.000166944 8.3472e-05 8.31354e-05 0 8.3472e-05 0 0.00440621 0 0 0 0.011736 0.0125877 0.0125904 0.0136573 0.0125877 0.0134394 0.0136573 0.0145716 0.0125904 0.0136573 0.0134449 0.0145743 0.0136573 0.0145716 0.0145743 0.0157038 0.00936558 0.008512 0.0112819 0.0104001 0.008512 0.00765842 0.0104001 0.0093509 0.0112819 0.0104001 0.0131981 0.0120304 0.0104001 0.0093509 0.0120304 0.0107662 0.0142029 0.0137005 0.0154031 0.0149219 0.0137005 0.0131981 0.0149219 0.0142807 0.0154031 0.0149219 0.0166034 0.0160099 0.0149219 0.0142807 0.0160099 0.0153029 0.0131981 0.0120304 0.0142807 0.0130511 0.0120304 0.0107662 0.0130511 0.0116893 0.0142807 0.0130511 0.0153029 0.0139801 0.0130511 0.0116893 0.0139801 0.0125253 0.00765842 0.00606474 0.0093509 0.00761387 0.00606474 0.00447105 0.00761387 0.00564471 0.0093509 0.00761387 0.0107662 0.00886917 0.00761387 0.00564471 0.00886917 0.00681836 0.0107662 0.00886917 0.0116893 0.00956795 0.00886917 0.00681836 0.00956795 0.00726398 0.0116893 0.00956795 0.0125253 0.0102235 0.00956795 0.00726398 0.0102235 0.00776406 0.00681836 0.00340918 0.00726398 0.00380445 0.00340918 0 0.00380445 0 0.00726398 0.00380445 0.00776406 0.00409677 0.00380445 0 0.00409677 0 0.0166034 0.0160099 0.0171418 0.0165792 0.0160099 0.0153029 0.0165792 0.0158393 0.0171418 0.0165792 0.0176803 0.017047 0.0165792 0.0158393 0.017047 0.0162882 0.0153029 0.0139801 0.0158393 0.0144567 0.0139801 0.0125253 0.0144567 0.01294 0.0158393 0.0144567 0.0162882 0.0148617 0.0144567 0.01294 0.0148617 0.0132984 0.0176803 0.017047 0.0176297 0.0170475 0.017047 0.0162882 0.0170475 0.0162935 0.0176297 0.0170475 0.0175791 0.0169538 0.0170475 0.0162935 0.0169538 0.0162061 0.0162882 0.0148617 0.0162935 0.0148697 0.0148617 0.0132984 0.0148697 0.0133086 0.0162935 0.0148697 0.0162061 0.0147949 0.0148697 0.0133086 0.0147949 0.0132482 0.0125253 0.0102235 0.01294 0.0105562 0.0102235 0.00776406 0.0105562 0.00801335 0.01294 0.0105562 0.0132984 0.0108416 0.0105562 0.00801335 0.0108416 0.00822169 0.00776406 0.00409677 0.00801335 0.00422818 0.00409677 0 0.00422818 0 0.00801335 0.00422818 0.00822169 0.00433434 0.00422818 0 0.00433434 0 0.0132984 0.0108416 0.0133086 0.0108524 0.0108416 0.00822169 0.0108524 0.00823077 0.0133086 0.0108524 0.0132482 0.0108067 0.0108524 0.00823077 0.0108067 0.008201 0.00822169 0.00433434 0.00823077 0.00433957 0.00433434 0 0.00433957 0 0.00823077 0.00433957 0.008201 0.00432458 0.00433957 0 0.00432458 0 0.0142246 0.0154174 0.0136974 0.0149361 0.0154174 0.0166102 0.0149361 0.0159614 0.0136974 0.0149361 0.0131702 0.0143046 0.0149361 0.0159614 0.0143046 0.0153126 0.00947233 0.0113213 0.00854217 0.0103876 0.0113213 0.0131702 0.0103876 0.012033 0.00854217 0.0103876 0.007612 0.00932726 0.0103876 0.012033 0.00932726 0.0107873 0.0131702 0.0143046 0.012033 0.0130716 0.0143046 0.0153126 0.0130716 0.0139995 0.012033 0.0130716 0.0107873 0.0117013 0.0130716 0.0139995 0.0117013 0.012536 0.0176767 0.0176279 0.0169829 0.0170464 0.0176279 0.0175791 0.0170464 0.0169574 0.0169829 0.0170464 0.0162891 0.0163032 0.0170464 0.0169574 0.0163032 0.0162118 0.0153126 0.0158009 0.0139995 0.0144682 0.0158009 0.0162891 0.0144682 0.0148766 0.0139995 0.0144682 0.012536 0.0129524 0.0144682 0.0148766 0.0129524 0.0133087 0.0162891 0.0163032 0.0148766 0.0148836 0.0163032 0.0162118 0.0148836 0.0148016 0.0148766 0.0148836 0.0133087 0.0133171 0.0148836 0.0148016 0.0133171 0.0132531 0.007612 0.00932726 0.00604193 0.00762226 0.00932726 0.0107873 0.00762226 0.00888297 0.00604193 0.00762226 0.00447187 0.00564379 0.00762226 0.00888297 0.00564379 0.00681571 0.0107873 0.0117013 0.00888297 0.00957152 0.0117013 0.012536 0.00957152 0.0102295 0.00888297 0.00957152 0.00681571 0.00726023 0.00957152 0.0102295 0.00726023 0.0077664 0.00681571 0.00726023 0.00340786 0.0038042 0.00726023 0.0077664 0.0038042 0.00409793 0.00340786 0.0038042 0 0 0.0038042 0.00409793 0 0 0.012536 0.0129524 0.0102295 0.0105626 0.0129524 0.0133087 0.0105626 0.0108473 0.0102295 0.0105626 0.0077664 0.0080152 0.0105626 0.0108473 0.0080152 0.00822389 0.0133087 0.0133171 0.0108473 0.0108568 0.0133171 0.0132531 0.0108568 0.0108095 0.0108473 0.0108568 0.00822389 0.00823253 0.0108568 0.0108095 0.00823253 0.00820209 0.0077664 0.0080152 0.00409793 0.00422871 0.0080152 0.00822389 0.00422871 0.00433513 0.00409793 0.00422871 0 0 0.00422871 0.00433513 0 0 0.00822389 0.00823253 0.00433513 0.00434026 0.00823253 0.00820209 0.00434026 0.00432502 0.00433513 0.00434026 0 0 0.00434026 0.00432502 0 0 0.0175791 0.0169538 0.0169574 0.0163642 0.0169538 0.0162061 0.0163642 0.0156518 0.0169574 0.0163642 0.0162118 0.0156542 0.0163642 0.0156518 0.0156542 0.0149907 0.0162061 0.0147949 0.0156518 0.0143057 0.0147949 0.0132482 0.0143057 0.0128289 0.0156518 0.0143057 0.0149907 0.013721 0.0143057 0.0128289 0.013721 0.0123286 0.0162118 0.0156542 0.0148016 0.0143085 0.0156542 0.0149907 0.0143085 0.0137218 0.0148016 0.0143085 0.0132531 0.0128312 0.0143085 0.0137218 0.0128312 0.0123294 0.0149907 0.013721 0.0137218 0.0125897 0.013721 0.0123286 0.0125897 0.0113452 0.0137218 0.0125897 0.0123294 0.0113453 0.0125897 0.0113452 0.0113453 0.0102661 0.0132482 0.0108067 0.0128289 0.010481 0.0108067 0.008201 0.010481 0.00797282 0.0128289 0.010481 0.0123286 0.0100902 0.010481 0.00797282 0.0100902 0.00769944 0.008201 0.00432458 0.00797282 0.0042098 0.00432458 0 0.0042098 0 0.00797282 0.0042098 0.00769944 0.00407142 0.0042098 0 0.00407142 0 0.0123286 0.0100902 0.0113452 0.00932047 0.0100902 0.00769944 0.00932047 0.00715389 0.0113452 0.00932047 0.0102661 0.00847278 0.00932047 0.00715389 0.00847278 0.00654938 0.00769944 0.00407142 0.00715389 0.00379554 0.00407142 0 0.00379554 0 0.00715389 0.00379554 0.00654938 0.0034868 0.00379554 0 0.0034868 0 0.0132531 0.0128312 0.0108095 0.0104826 0.0128312 0.0123294 0.0104826 0.0100908 0.0108095 0.0104826 0.00820209 0.00797343 0.0104826 0.0100908 0.00797343 0.00769967 0.0123294 0.0113453 0.0100908 0.00932064 0.0113453 0.0102661 0.00932064 0.00847285 0.0100908 0.00932064 0.00769967 0.0071539 0.00932064 0.00847285 0.0071539 0.00654935 0.00820209 0.00797343 0.00432502 0.00421007 0.00797343 0.00769967 0.00421007 0.00407153 0.00432502 0.00421007 0 0 0.00421007 0.00407153 0 0 0.00769967 0.0071539 0.00407153 0.00379556 0.0071539 0.00654935 0.00379556 0.00348681 0.00407153 0.00379556 0 0 0.00379556 0.00348681 0 0 0.0102661 0.00847278 0.00847285 0.00705604 0.00847278 0.00654938 0.00705604 0.00551214 0.00847285 0.00705604 0.00654935 0.00551209 0.00705604 0.00551214 0.00551209 0.00440621 0.00654938 0.0034868 0.00551214 0.00292863 0.0034868 0 0.00292863 0 0.00551214 0.00292863 0.00440621 0.00220311 0.00292863 0 0.00220311 0 0.00654935 0.00551209 0.00348681 0.00292863 0.00551209 0.00440621 0.00292863 0.00220311 0.00348681 0.00292863 0 0 0.00292863 0.00220311 0 0 
