# vtk DataFile Version 3.0
#This file was generated by the deal.II library on 2021/4/23 at 0:45:43
ASCII
DATASET UNSTRUCTURED_GRID

FIELD FieldData 2
CYCLE 1 1 int
115
TIME 1 1 double
0.23
POINTS 3588 double
-1 -1 0
-0.75 -1 0
-1 -0.75 0
-0.75 -0.75 0
-0.75 -1 0
-0.5 -1 0
-0.75 -0.75 0
-0.5 -0.75 0
-1 -0.75 0
-0.75 -0.75 0
-1 -0.5 0
-0.75 -0.5 0
-0.75 -0.75 0
-0.5 -0.75 0
-0.75 -0.5 0
-0.5 -0.5 0
-0.5 -1 0
-0.25 -1 0
-0.5 -0.75 0
-0.25 -0.75 0
-0.25 -1 0
0 -1 0
-0.25 -0.75 0
0 -0.75 0
-0.5 -0.75 0
-0.25 -0.75 0
-0.5 -0.5 0
-0.25 -0.5 0
-0.25 -0.75 0
0 -0.75 0
-0.25 -0.5 0
0 -0.5 0
-1 -0.5 0
-0.75 -0.5 0
-1 -0.25 0
-0.75 -0.25 0
-0.75 -0.5 0
-0.5 -0.5 0
-0.75 -0.25 0
-0.5 -0.25 0
-1 -0.25 0
-0.75 -0.25 0
-1 0 0
-0.75 0 0
-0.5 -0.5 0
-0.25 -0.5 0
-0.5 -0.25 0
-0.25 -0.25 0
-0.25 -0.5 0
0 -0.5 0
-0.25 -0.25 0
0 -0.25 0
0 -1 0
0.25 -1 0
0 -0.75 0
0.25 -0.75 0
-1 0 0
-0.75 0 0
-1 0.25 0
-0.75 0.25 0
-0.75 -0.25 0
-0.625 -0.25 0
-0.75 -0.125 0
-0.625 -0.125 0
-0.625 -0.25 0
-0.5 -0.25 0
-0.625 -0.125 0
-0.5 -0.125 0
-0.75 -0.125 0
-0.625 -0.125 0
-0.75 0 0
-0.625 0 0
-0.625 -0.125 0
-0.5 -0.125 0
-0.625 0 0
-0.5 0 0
-0.5 -0.25 0
-0.375 -0.25 0
-0.5 -0.125 0
-0.375 -0.125 0
-0.375 -0.25 0
-0.25 -0.25 0
-0.375 -0.125 0
-0.25 -0.125 0
-0.5 -0.125 0
-0.375 -0.125 0
-0.5 0 0
-0.375 0 0
-0.375 -0.125 0
-0.25 -0.125 0
-0.375 0 0
-0.25 0 0
0 -0.75 0
0.125 -0.75 0
0 -0.625 0
0.125 -0.625 0
0.125 -0.75 0
0.25 -0.75 0
0.125 -0.625 0
0.25 -0.625 0
0 -0.625 0
0.125 -0.625 0
0 -0.5 0
0.125 -0.5 0
0.125 -0.625 0
0.25 -0.625 0
0.125 -0.5 0
0.25 -0.5 0
0 -0.5 0
0.125 -0.5 0
0 -0.375 0
0.125 -0.375 0
0.125 -0.5 0
0.25 -0.5 0
0.125 -0.375 0
0.25 -0.375 0
0 -0.375 0
0.125 -0.375 0
0 -0.25 0
0.125 -0.25 0
0.75 -1 0
0.875 -1 0
0.75 -0.875 0
0.875 -0.875 0
0.875 -1 0
1 -1 0
0.875 -0.875 0
1 -0.875 0
0.875 -0.875 0
1 -0.875 0
0.875 -0.75 0
1 -0.75 0
0.25 -1 0
0.375 -1 0
0.25 -0.875 0
0.375 -0.875 0
0.375 -1 0
0.5 -1 0
0.375 -0.875 0
0.5 -0.875 0
0.25 -0.875 0
0.375 -0.875 0
0.25 -0.75 0
0.375 -0.75 0
0.375 -0.875 0
0.5 -0.875 0
0.375 -0.75 0
0.5 -0.75 0
0.25 -0.75 0
0.375 -0.75 0
0.25 -0.625 0
0.375 -0.625 0
0.5 -1 0
0.625 -1 0
0.5 -0.875 0
0.625 -0.875 0
0.625 -1 0
0.75 -1 0
0.625 -0.875 0
0.75 -0.875 0
-0.25 -0.25 0
-0.125 -0.25 0
-0.25 -0.125 0
-0.125 -0.125 0
-0.125 -0.25 0
0 -0.25 0
-0.125 -0.125 0
0 -0.125 0
-0.25 -0.125 0
-0.125 -0.125 0
-0.25 0 0
-0.125 0 0
-0.75 0 0
-0.625 0 0
-0.75 0.125 0
-0.625 0.125 0
-0.625 0 0
-0.5 0 0
-0.625 0.125 0
-0.5 0.125 0
-0.75 0.125 0
-0.625 0.125 0
-0.75 0.25 0
-0.625 0.25 0
-0.625 0.125 0
-0.5 0.125 0
-0.625 0.25 0
-0.5 0.25 0
-1 0.25 0
-0.875 0.25 0
-1 0.375 0
-0.875 0.375 0
-0.875 0.25 0
-0.75 0.25 0
-0.875 0.375 0
-0.75 0.375 0
-1 0.375 0
-0.875 0.375 0
-1 0.5 0
-0.875 0.5 0
-0.875 0.375 0
-0.75 0.375 0
-0.875 0.5 0
-0.75 0.5 0
-0.75 0.25 0
-0.625 0.25 0
-0.75 0.375 0
-0.625 0.375 0
-0.625 0.25 0
-0.5 0.25 0
-0.625 0.375 0
-0.5 0.375 0
-0.75 0.375 0
-0.625 0.375 0
-0.75 0.5 0
-0.625 0.5 0
-0.25 0 0
-0.125 0 0
-0.25 0.125 0
-0.125 0.125 0
-0.25 0.125 0
-0.125 0.125 0
-0.25 0.25 0
-0.125 0.25 0
-0.125 0.125 0
0 0.125 0
-0.125 0.25 0
0 0.25 0
-1 0.75 0
-0.875 0.75 0
-1 0.875 0
-0.875 0.875 0
-0.875 0.75 0
-0.75 0.75 0
-0.875 0.875 0
-0.75 0.875 0
-1 0.875 0
-0.875 0.875 0
-1 1 0
-0.875 1 0
-0.875 0.875 0
-0.75 0.875 0
-0.875 1 0
-0.75 1 0
-0.5 0 0
-0.375 0 0
-0.5 0.125 0
-0.375 0.125 0
-0.375 0 0
-0.25 0 0
-0.375 0.125 0
-0.25 0.125 0
-0.5 0.125 0
-0.375 0.125 0
-0.5 0.25 0
-0.375 0.25 0
-0.375 0.125 0
-0.25 0.125 0
-0.375 0.25 0
-0.25 0.25 0
0 -0.25 0
0.125 -0.25 0
0 -0.125 0
0.125 -0.125 0
0.125 -0.125 0
0.25 -0.125 0
0.125 0 0
0.25 0 0
-0.25 0.25 0
-0.125 0.25 0
-0.25 0.375 0
-0.125 0.375 0
-0.125 0.25 0
0 0.25 0
-0.125 0.375 0
0 0.375 0
-0.125 0.375 0
0 0.375 0
-0.125 0.5 0
0 0.5 0
-0.375 0.25 0
-0.25 0.25 0
-0.375 0.375 0
-0.25 0.375 0
-0.375 0.375 0
-0.25 0.375 0
-0.375 0.5 0
-0.25 0.5 0
-1 0.5 0
-0.875 0.5 0
-1 0.625 0
-0.875 0.625 0
-0.875 0.5 0
-0.75 0.5 0
-0.875 0.625 0
-0.75 0.625 0
-1 0.625 0
-0.875 0.625 0
-1 0.75 0
-0.875 0.75 0
-0.875 0.625 0
-0.75 0.625 0
-0.875 0.75 0
-0.75 0.75 0
-0.75 0.625 0
-0.625 0.625 0
-0.75 0.75 0
-0.625 0.75 0
-0.625 0.625 0
-0.5 0.625 0
-0.625 0.75 0
-0.5 0.75 0
-0.75 0.75 0
-0.625 0.75 0
-0.75 0.875 0
-0.625 0.875 0
-0.75 0.875 0
-0.625 0.875 0
-0.75 1 0
-0.625 1 0
-0.625 0.875 0
-0.5 0.875 0
-0.625 1 0
-0.5 1 0
-0.125 0.5 0
0 0.5 0
-0.125 0.625 0
0 0.625 0
-0.125 0.875 0
0 0.875 0
-0.125 1 0
0 1 0
0.75 -0.875 0
0.8125 -0.875 0
0.75 -0.8125 0
0.8125 -0.8125 0
0.8125 -0.875 0
0.875 -0.875 0
0.8125 -0.8125 0
0.875 -0.8125 0
0.75 -0.8125 0
0.8125 -0.8125 0
0.75 -0.75 0
0.8125 -0.75 0
0.8125 -0.8125 0
0.875 -0.8125 0
0.8125 -0.75 0
0.875 -0.75 0
0.375 -0.75 0
0.4375 -0.75 0
0.375 -0.6875 0
0.4375 -0.6875 0
0.4375 -0.75 0
0.5 -0.75 0
0.4375 -0.6875 0
0.5 -0.6875 0
0.375 -0.6875 0
0.4375 -0.6875 0
0.375 -0.625 0
0.4375 -0.625 0
0.4375 -0.6875 0
0.5 -0.6875 0
0.4375 -0.625 0
0.5 -0.625 0
-0.625 0.375 0
-0.5625 0.375 0
-0.625 0.4375 0
-0.5625 0.4375 0
-0.5625 0.375 0
-0.5 0.375 0
-0.5625 0.4375 0
-0.5 0.4375 0
-0.625 0.4375 0
-0.5625 0.4375 0
-0.625 0.5 0
-0.5625 0.5 0
-0.5625 0.4375 0
-0.5 0.4375 0
-0.5625 0.5 0
-0.5 0.5 0
0.25 -0.625 0
0.3125 -0.625 0
0.25 -0.5625 0
0.3125 -0.5625 0
0.3125 -0.625 0
0.375 -0.625 0
0.3125 -0.5625 0
0.375 -0.5625 0
0.25 -0.5625 0
0.3125 -0.5625 0
0.25 -0.5 0
0.3125 -0.5 0
0.3125 -0.5625 0
0.375 -0.5625 0
0.3125 -0.5 0
0.375 -0.5 0
0.375 -0.625 0
0.4375 -0.625 0
0.375 -0.5625 0
0.4375 -0.5625 0
0.4375 -0.625 0
0.5 -0.625 0
0.4375 -0.5625 0
0.5 -0.5625 0
0.375 -0.5625 0
0.4375 -0.5625 0
0.375 -0.5 0
0.4375 -0.5 0
0.4375 -0.5625 0
0.5 -0.5625 0
0.4375 -0.5 0
0.5 -0.5 0
0.5 -0.875 0
0.5625 -0.875 0
0.5 -0.8125 0
0.5625 -0.8125 0
0.5625 -0.875 0
0.625 -0.875 0
0.5625 -0.8125 0
0.625 -0.8125 0
0.5 -0.8125 0
0.5625 -0.8125 0
0.5 -0.75 0
0.5625 -0.75 0
0.5625 -0.8125 0
0.625 -0.8125 0
0.5625 -0.75 0
0.625 -0.75 0
0.625 -0.875 0
0.6875 -0.875 0
0.625 -0.8125 0
0.6875 -0.8125 0
0.6875 -0.875 0
0.75 -0.875 0
0.6875 -0.8125 0
0.75 -0.8125 0
0.625 -0.8125 0
0.6875 -0.8125 0
0.625 -0.75 0
0.6875 -0.75 0
0.6875 -0.8125 0
0.75 -0.8125 0
0.6875 -0.75 0
0.75 -0.75 0
0.875 -0.75 0
0.9375 -0.75 0
0.875 -0.6875 0
0.9375 -0.6875 0
0.9375 -0.75 0
1 -0.75 0
0.9375 -0.6875 0
1 -0.6875 0
0.875 -0.6875 0
0.9375 -0.6875 0
0.875 -0.625 0
0.9375 -0.625 0
0.9375 -0.6875 0
1 -0.6875 0
0.9375 -0.625 0
1 -0.625 0
0.125 -0.25 0
0.1875 -0.25 0
0.125 -0.1875 0
0.1875 -0.1875 0
0.1875 -0.25 0
0.25 -0.25 0
0.1875 -0.1875 0
0.25 -0.1875 0
0.125 -0.1875 0
0.1875 -0.1875 0
0.125 -0.125 0
0.1875 -0.125 0
0.1875 -0.1875 0
0.25 -0.1875 0
0.1875 -0.125 0
0.25 -0.125 0
0.25 -0.125 0
0.3125 -0.125 0
0.25 -0.0625 0
0.3125 -0.0625 0
0.3125 -0.125 0
0.375 -0.125 0
0.3125 -0.0625 0
0.375 -0.0625 0
0.25 -0.0625 0
0.3125 -0.0625 0
0.25 0 0
0.3125 0 0
0.3125 -0.0625 0
0.375 -0.0625 0
0.3125 0 0
0.375 0 0
-0.125 0 0
-0.0625 0 0
-0.125 0.0625 0
-0.0625 0.0625 0
-0.0625 0 0
0 0 0
-0.0625 0.0625 0
0 0.0625 0
-0.125 0.0625 0
-0.0625 0.0625 0
-0.125 0.125 0
-0.0625 0.125 0
-0.0625 0.0625 0
0 0.0625 0
-0.0625 0.125 0
0 0.125 0
-0.25 0.375 0
-0.1875 0.375 0
-0.25 0.4375 0
-0.1875 0.4375 0
-0.1875 0.375 0
-0.125 0.375 0
-0.1875 0.4375 0
-0.125 0.4375 0
-0.25 0.4375 0
-0.1875 0.4375 0
-0.25 0.5 0
-0.1875 0.5 0
-0.1875 0.4375 0
-0.125 0.4375 0
-0.1875 0.5 0
-0.125 0.5 0
-0.5 0.25 0
-0.4375 0.25 0
-0.5 0.3125 0
-0.4375 0.3125 0
-0.4375 0.25 0
-0.375 0.25 0
-0.4375 0.3125 0
-0.375 0.3125 0
-0.5 0.3125 0
-0.4375 0.3125 0
-0.5 0.375 0
-0.4375 0.375 0
-0.4375 0.3125 0
-0.375 0.3125 0
-0.4375 0.375 0
-0.375 0.375 0
-0.5 0.375 0
-0.4375 0.375 0
-0.5 0.4375 0
-0.4375 0.4375 0
-0.4375 0.375 0
-0.375 0.375 0
-0.4375 0.4375 0
-0.375 0.4375 0
-0.5 0.4375 0
-0.4375 0.4375 0
-0.5 0.5 0
-0.4375 0.5 0
-0.4375 0.4375 0
-0.375 0.4375 0
-0.4375 0.5 0
-0.375 0.5 0
-0.75 0.5 0
-0.6875 0.5 0
-0.75 0.5625 0
-0.6875 0.5625 0
-0.6875 0.5 0
-0.625 0.5 0
-0.6875 0.5625 0
-0.625 0.5625 0
-0.75 0.5625 0
-0.6875 0.5625 0
-0.75 0.625 0
-0.6875 0.625 0
-0.6875 0.5625 0
-0.625 0.5625 0
-0.6875 0.625 0
-0.625 0.625 0
-0.625 0.5 0
-0.5625 0.5 0
-0.625 0.5625 0
-0.5625 0.5625 0
-0.5625 0.5 0
-0.5 0.5 0
-0.5625 0.5625 0
-0.5 0.5625 0
-0.625 0.5625 0
-0.5625 0.5625 0
-0.625 0.625 0
-0.5625 0.625 0
-0.5625 0.5625 0
-0.5 0.5625 0
-0.5625 0.625 0
-0.5 0.625 0
-0.625 0.75 0
-0.5625 0.75 0
-0.625 0.8125 0
-0.5625 0.8125 0
-0.5625 0.75 0
-0.5 0.75 0
-0.5625 0.8125 0
-0.5 0.8125 0
-0.625 0.8125 0
-0.5625 0.8125 0
-0.625 0.875 0
-0.5625 0.875 0
-0.5625 0.8125 0
-0.5 0.8125 0
-0.5625 0.875 0
-0.5 0.875 0
-0.5 0.5 0
-0.4375 0.5 0
-0.5 0.5625 0
-0.4375 0.5625 0
-0.4375 0.5 0
-0.375 0.5 0
-0.4375 0.5625 0
-0.375 0.5625 0
-0.5 0.5625 0
-0.4375 0.5625 0
-0.5 0.625 0
-0.4375 0.625 0
-0.4375 0.5625 0
-0.375 0.5625 0
-0.4375 0.625 0
-0.375 0.625 0
-0.375 0.5 0
-0.3125 0.5 0
-0.375 0.5625 0
-0.3125 0.5625 0
-0.3125 0.5 0
-0.25 0.5 0
-0.3125 0.5625 0
-0.25 0.5625 0
-0.375 0.5625 0
-0.3125 0.5625 0
-0.375 0.625 0
-0.3125 0.625 0
-0.3125 0.5625 0
-0.25 0.5625 0
-0.3125 0.625 0
-0.25 0.625 0
-0.5 0.625 0
-0.4375 0.625 0
-0.5 0.6875 0
-0.4375 0.6875 0
-0.4375 0.625 0
-0.375 0.625 0
-0.4375 0.6875 0
-0.375 0.6875 0
-0.5 0.6875 0
-0.4375 0.6875 0
-0.5 0.75 0
-0.4375 0.75 0
-0.4375 0.6875 0
-0.375 0.6875 0
-0.4375 0.75 0
-0.375 0.75 0
-0.375 0.625 0
-0.3125 0.625 0
-0.375 0.6875 0
-0.3125 0.6875 0
-0.3125 0.625 0
-0.25 0.625 0
-0.3125 0.6875 0
-0.25 0.6875 0
-0.375 0.6875 0
-0.3125 0.6875 0
-0.375 0.75 0
-0.3125 0.75 0
-0.3125 0.6875 0
-0.25 0.6875 0
-0.3125 0.75 0
-0.25 0.75 0
-0.25 0.5 0
-0.1875 0.5 0
-0.25 0.5625 0
-0.1875 0.5625 0
-0.1875 0.5 0
-0.125 0.5 0
-0.1875 0.5625 0
-0.125 0.5625 0
-0.25 0.5625 0
-0.1875 0.5625 0
-0.25 0.625 0
-0.1875 0.625 0
-0.1875 0.5625 0
-0.125 0.5625 0
-0.1875 0.625 0
-0.125 0.625 0
0.125 -0.375 0
0.1875 -0.375 0
0.125 -0.3125 0
0.1875 -0.3125 0
0.1875 -0.375 0
0.25 -0.375 0
0.1875 -0.3125 0
0.25 -0.3125 0
0.125 -0.3125 0
0.1875 -0.3125 0
0.125 -0.25 0
0.1875 -0.25 0
0.1875 -0.3125 0
0.25 -0.3125 0
0.1875 -0.25 0
[...]
POINT_DATA 3588
SCALARS U double 1
LOOKUP_TABLE default
0 0 0 5.91977e-05 0 0 5.91977e-05 0.00012112 0 5.91977e-05 0 0.000150253 5.91977e-05 0.00012112 0.000150253 0.000273646 0 0 0.00012112 0.000183555 0 0 0.000183555 0.000245228 0.00012112 0.000183555 0.000273646 0.000344492 0.000183555 0.000245228 0.000344492 0.000451562 0 0.000150253 0 0.000336762 0.000150253 0.000273646 0.000336762 0.000558417 0 0.000336762 0 0.000683311 0.000273646 0.000344492 0.000558417 0.000537352 0.000344492 0.000451562 0.000537352 0.000469015 0 0 0.000245228 0.000487811 0 0.000683311 0 0.00113888 0.000336762 0.00044759 0.000510037 0.000669091 0.00044759 0.000558417 0.000669091 0.000763317 0.000510037 0.000669091 0.000683311 0.000930809 0.000669091 0.000763317 0.000930809 0.00105135 0.000558417 0.000547885 0.000763317 0.00076746 0.000547885 0.000537352 0.00076746 0.000670854 0.000763317 0.00076746 0.00105135 0.00102579 0.00076746 0.000670854 0.00102579 0.000844463 0.000245228 0.000366519 0.000348395 0.000519597 0.000366519 0.000487811 0.000519597 0.00093977 0.000348395 0.000519597 0.000451562 0.000688152 0.000519597 0.00093977 0.000688152 0.00148948 0.000451562 0.000688152 0.000460288 0.000788593 0.000688152 0.00148948 0.000788593 0.00184955 0.000460288 0.000788593 0.000469015 0.000768947 0 0 0.000497447 0.000279144 0 0 0.000279144 0 0.000279144 0 0.00102757 0 0 0 0.000243905 0.00031014 0 0 0.00031014 0.000419269 0.000243905 0.00031014 0.000487811 0.000847416 0.00031014 0.000419269 0.000847416 0.00131986 0.000487811 0.000847416 0.00093977 0.0018741 0 0 0.000419269 0.000528562 0 0 0.000528562 0.000497447 0.000537352 0.000503184 0.000670854 0.000499256 0.000503184 0.000469015 0.000499256 0.000354773 0.000670854 0.000499256 0.000844463 0.000519057 0.000683311 0.000930809 0.000911097 0.0012293 0.000930809 0.00105135 0.0012293 0.00138006 0.000911097 0.0012293 0.00113888 0.0015208 0.0012293 0.00138006 0.0015208 0.00170387 0 0.000569442 0 0.000684252 0.000569442 0.00113888 0.000684252 0.00129064 0 0.000684252 0 0.000714156 0.000684252 0.00129064 0.000714156 0.00134588 0.00113888 0.0015208 0.00129064 0.00174133 0.0015208 0.00170387 0.00174133 0.0019387 0.00129064 0.00174133 0.00134588 0.00180135 0.000844463 0.000519057 0.00105772 0.000594287 0.00105772 0.000594287 0.00128038 0.000706997 0.000594287 0 0.000706997 0 0 0.000507429 0 0.000276969 0.000507429 0.000955232 0.000276969 0.000521521 0 0.000276969 0 0 0.000276969 0.000521521 0 0 0.00105135 0.00102579 0.00138006 0.0013268 0.00102579 0.000844463 0.0013268 0.00105772 0.00138006 0.0013268 0.00170387 0.00162742 0.0013268 0.00105772 0.00162742 0.00128038 0.000469015 0.000768947 0.000354773 0.000446756 0.000446756 0.00111862 0 0 0.00128038 0.000706997 0.00145601 0.000802538 0.000706997 0 0.000802538 0 0.000802538 0 0.000830934 0 0.00162742 0.00128038 0.00184989 0.00145601 0.00184989 0.00145601 0.00192458 0.00150961 0 0.000714156 0 0.000657666 0.000714156 0.00134588 0.000657666 0.00123881 0 0.000657666 0 0.000507429 0.000657666 0.00123881 0.000507429 0.000955232 0.00123881 0.00166345 0.000955232 0.00128467 0.00166345 0.00185995 0.00128467 0.0014353 0.000955232 0.00128467 0.000521521 0.000702067 0.000521521 0.000702067 0 0 0.000702067 0.000782799 0 0 0.000830934 0 0.000766308 0 0.000323649 0 0 0 0.000497447 0.000388295 0.000928426 0.000794467 0.000388295 0.000279144 0.000794467 0.000653355 0.000928426 0.000794467 0.00168141 0.00142713 0.000794467 0.000653355 0.00142713 0.00102757 0.000847416 0.00108364 0.00136076 0.00172132 0.00108364 0.00131986 0.00172132 0.00216378 0.00136076 0.00172132 0.0018741 0.00262295 0.00172132 0.00216378 0.00262295 0.00341721 0.00174133 0.00184001 0.00177134 0.00192314 0.00184001 0.0019387 0.00192314 0.00199262 0.00177134 0.00192314 0.00180135 0.00193476 0.00192314 0.00199262 0.00193476 0.00200714 0.00093977 0.00140694 0.00121463 0.0018008 0.00140694 0.0018741 0.0018008 0.00265787 0.00121463 0.0018008 0.00148948 0.00226135 0.0018008 0.00265787 0.00226135 0.003477 0.0018741 0.00262295 0.00265787 0.00383091 0.00262295 0.00341721 0.00383091 0.00520274 0.00265787 0.00383091 0.003477 0.00522954 0.00383091 0.00520274 0.00522954 0.0077281 0.000419269 0.000473915 0.000869562 0.000906596 0.000473915 0.000528562 0.000906596 0.000975376 0.000869562 0.000906596 0.00131986 0.00155941 0.000906596 0.000975376 0.00155941 0.0017021 0.000528562 0.000513004 0.000975376 0.000988976 0.000513004 0.000497447 0.000988976 0.000928426 0.000975376 0.000988976 0.0017021 0.00177133 0.000988976 0.000928426 0.00177133 0.00168141 0.00102757 0.000513783 0.00181399 0.000971926 0.000513783 0 0.000971926 0 0.00181399 0.000971926 0.00313726 0.00173709 0.000971926 0 0.00173709 0 0.000768947 0.00113006 0.000607851 0.000965952 0.00113006 0.00183955 0.000965952 0.00155662 0.000607851 0.000965952 0.000446756 0.000782687 0.000965952 0.00155662 0.000782687 0.00111862 0.00111862 0.00188312 0.000559308 0.0010083 0.00188312 0.00319034 0.0010083 0.00176584 0.000559308 0.0010083 0 0 0.0010083 0.00176584 0 0 0.000519057 0.000312859 0.000556672 0.000288614 0.000312859 0 0.000288614 0 0.000556672 0.000288614 0.000594287 0.000297144 0.000288614 0 0.000297144 0 0.00145601 0.00112927 0.00148281 0.00118353 0.00112927 0.000802538 0.00118353 0.000816736 0.00148281 0.00118353 0.00150961 0.0011898 0.00118353 0.000816736 0.0011898 0.000830934 0.00170387 0.00166565 0.00182129 0.00182215 0.00166565 0.00162742 0.00182215 0.00173866 0.00182129 0.00182215 0.0019387 0.00192432 0.00182215 0.00173866 0.00192432 0.00184989 0.0019387 0.00192432 0.00199262 0.00198957 0.00192432 0.00184989 0.00198957 0.00188723 0.00199262 0.00198957 0.00200714 0.00200006 0.00198957 0.00188723 0.00200006 0.00192458 0.00134588 0.00157362 0.00129234 0.00155272 0.00157362 0.00180135 0.00155272 0.00174812 0.00129234 0.00155272 0.00123881 0.00145113 0.00155272 0.00174812 0.00145113 0.00166345 0.00180135 0.00193476 0.00174812 0.00189125 0.00193476 0.00200714 0.00189125 0.00195884 0.00174812 0.00189125 0.00166345 0.0017617 0.00189125 0.00195884 0.0017617 0.00185995 0.00128467 0.00135998 0.000993367 0.00108482 0.00135998 0.0014353 0.00108482 0.00112479 0.000993367 0.00108482 0.000702067 0.000742433 0.00108482 0.00112479 0.000742433 0.000782799 0.00200714 0.00200006 0.00195884 0.00195641 0.00200006 0.00192458 0.00195641 0.00186619 0.00195884 0.00195641 0.00185995 0.0018408 0.00195641 0.00186619 0.0018408 0.00176193 0.00192458 0.00171709 0.00186619 0.00170304 0.00171709 0.00150961 0.00170304 0.00146405 0.00186619 0.00170304 0.00176193 0.00160726 0.00170304 0.00146405 0.00160726 0.00138364 0.00185995 0.0018408 0.00164763 0.00166401 0.0018408 0.00176193 0.00166401 0.00159205 0.00164763 0.00166401 0.0014353 0.00142096 0.00166401 0.00159205 0.00142096 0.00136146 0.00176193 0.00160726 0.00159205 0.00145336 0.00160726 0.00138364 0.00145336 0.00125109 0.00159205 0.00145336 0.00136146 0.00124292 0.00145336 0.00125109 0.00124292 0.00107015 0.00150961 0.0011898 0.00146405 0.00116435 0.0011898 0.000830934 0.00116435 0.000798621 0.00146405 0.00116435 0.00138364 0.00109725 0.00116435 0.000798621 0.00109725 0.000766308 0.000788593 0.00131907 0.00077877 0.00121944 0.00131907 0.00184955 0.00121944 0.00195049 0.00077877 0.00121944 0.000768947 0.00113006 0.00121944 0.00195049 0.00113006 0.00183955 0.00138364 0.00109725 0.00125109 0.000993232 0.00109725 0.000766308 0.000993232 0.000688376 0.00125109 0.000993232 0.00107015 0.000849027 0.000993232 0.000688376 0.000849027 0.000589003 0.000499256 0.000427015 0.000509157 0.000358714 0.000427015 0.000354773 0.000358714 0.000252747 0.000509157 0.000358714 0.000519057 0.000312859 0.000358714 0.000252747 0.000312859 0 0.000766308 0.000383154 0.000688376 0.000352271 0.000383154 0 0.000352271 0 0.000688376 0.000352271 0.000589003 0.000301477 0.000352271 0 0.000301477 0 0.0014353 0.00142096 0.00112479 0.00112486 0.00142096 0.00136146 0.00112486 0.00107524 0.00112479 0.00112486 0.000782799 0.000776645 0.00112486 0.00107524 0.000776645 0.000743993 0.00136146 0.00124292 0.00107524 0.000981794 0.00124292 0.00107015 0.000981794 0.000845276 0.00107524 0.000981794 0.000743993 0.000679181 0.000981794 0.000845276 0.000679181 0.000584786 0.000782799 0.000776645 0.000391399 0.000396827 0.000776645 0.000743993 0.000396827 0.000380202 0.000391399 0.000396827 0 0 0.000396827 0.000380202 0 0 0.000743993 0.000679181 0.000380202 0.000347203 0.000679181 0.000584786 0.000347203 0.000298921 0.000380202 0.000347203 0 0 0.000347203 0.000298921 0 0 0.00107015 0.000849027 0.000845276 0.000670915 0.000849027 0.000589003 0.000670915 0.000465126 0.000845276 0.000670915 0.000584786 0.000463858 0.000670915 0.000465126 0.000463858 0.000323649 0.000589003 0.000301477 0.000465126 0.000238034 0.000301477 0 0.000238034 0 0.000465126 0.000238034 0.000323649 0.000161824 0.000238034 0 0.000161824 0 0.000584786 0.000463858 0.000298921 0.000237051 0.000463858 0.000323649 0.000237051 0.000161824 0.000298921 0.000237051 0 0 0.000237051 0.000161824 0 0 0.00131986 0.00155941 0.00216378 0.00259799 0.00155941 0.0017021 0.00259799 0.00287004 0.00416113 0.00471714 0.00658926 0.00753044 0.00471714 0.00494279 0.00753044 0.00793325 0.00494279 0.0047756 0.00793325 0.00775383 0.00142713 0.00102757 0.00247794 0.00181399 0.0047756 0.0041869 0.00775383 0.00683133 0.0041869 0.00313726 0.00683133 0.00521344 0.00683133 0.00521344 0.0108588 0.00867124 0.000354773 0.000400765 0.000252747 0.000201121 0.000400765 0.000446756 0.000201121 0.000223378 0.000252747 0.000201121 0 0 0.000201121 0.000223378 0 0 0.00148948 0.00226135 0.00166952 0.0027087 0.00166952 0.0027087 0.00184955 0.0029866 0.0042383 0.00663732 0.00480711 0.00759065 0.00480711 0.00759065 0.00502688 0.00801912 0.00502688 0.00801912 0.00486428 0.00774366 0.00155662 0.00257407 0.00111862 0.00188312 0.00486428 0.00774366 0.00425594 0.00688876 0.00774366 0.0121055 0.00688876 0.0109399 0.00425594 0.00688876 0.00319034 0.00526097 0.00688876 0.0109399 0.00526097 0.00870077 0.0117096 0.0123233 0.0157272 0.0165793 0.0123233 0.0121034 0.0165793 0.0163318 0.0165793 0.0163318 0.0190835 0.018815 0.0117458 0.0157436 0.0123829 0.0165976 0.0123829 0.0165976 0.0121055 0.0163486 0.0165976 0.0190905 0.0163486 0.0188241 0.0195289 0.018951 0.0189525 0.0183819 0.018951 0.0178348 0.0183819 0.0173254 0.0189525 0.0183819 0.017837 0.0173263 0.0183819 0.0173254 0.0173263 0.0163463 0.0178348 0.0164772 0.0173254 0.0160028 0.0164772 0.0144015 0.0160028 0.0140182 0.0173254 0.0160028 0.0163463 0.0151258 0.0160028 0.0140182 0.0151258 0.0132672 0.017837 0.0173263 0.0164801 0.0160044 0.0173263 0.0163463 0.0160044 0.0151265 0.0164801 0.0160044 0.0144043 0.0140198 0.0160044 0.0151265 0.0140198 0.0132681 0.0163463 0.0151258 0.0151265 0.0140236 0.0151258 0.0132672 0.0140236 0.0123362 0.0151265 0.0140236 0.0132681 0.0123365 0.0140236 0.0123362 0.0123365 0.0108907 0.0144015 0.0120268 0.0140182 0.0117022 0.0120268 0.00866809 0.0117022 0.00846666 0.0140182 0.0117022 0.0132672 0.0111107 0.0117022 0.00846666 0.0111107 0.00805799 0.00866809 0.0048943 0.00846666 0.00475191 0.0048943 0 0.00475191 0 0.00846666 0.00475191 0.00805799 0.00454477 0.00475191 0 0.00454477 0 0.0132672 0.0111107 0.0123362 0.010363 0.0111107 0.00805799 0.010363 0.00754258 0.0123362 0.010363 0.0108907 0.00920201 0.010363 0.00754258 0.00920201 0.0067338 0.00805799 0.00454477 0.00754258 0.00427695 0.00454477 0 0.00427695 0 0.00754258 0.00427695 0.0067338 0.00385819 0.00427695 0 0.00385819 0 0.0144043 0.0140198 0.0120294 0.0117038 0.0140198 0.0132681 0.0117038 0.0111117 0.0120294 0.0117038 0.00866992 0.00846785 0.0117038 0.0111117 0.00846785 0.00805876 0.0132681 0.0123365 0.0111117 0.0103634 0.0123365 0.0108907 0.0103634 0.00920222 0.0111117 0.0103634 0.00805876 0.00754297 0.0103634 0.00920222 0.00754297 0.006734 0.00866992 0.00846785 0.00489528 0.00475257 0.00846785 0.00805876 0.00475257 0.00454521 0.00489528 0.00475257 0 0 0.00475257 0.00454521 0 0 0.00805876 0.00754297 0.00454521 0.00427719 0.00754297 0.006734 0.00427719 0.00385833 0.00454521 0.00427719 0 0 0.00427719 0.00385833 0 0 0.00521344 0.0042767 0.00694234 0.0054982 0.0042767 0.0029639 0.0054982 0.00383376 0.00694234 0.0054982 0.00867124 0.00710295 0.0054982 0.00383376 0.00710295 0.00514845 0.0108907 0.00920201 0.00920222 0.00783325 0.00920201 0.0067338 0.00783325 0.00578778 0.00920222 0.00783325 0.006734 0.00578783 0.00783325 0.00578778 0.00578783 0.00431535 0.0067338 0.00385819 0.00578778 0.0033602 0.00385819 0 0.0033602 0 0.00578778 0.0033602 0.00431535 0.00257731 0.0033602 0 0.00257731 0 0.006734 0.00578783 0.00385833 0.00336025 0.00578783 0.00431535 0.00336025 0.00257733 0.00385833 0.00336025 0 0 0.00336025 0.00257733 0 0 0.00431535 0.00257731 0.00257733 0.00161913 0.00257731 0 0.00161913 0 0.00257733 0.00161913 0 0 0.00161913 0 0 0 0.00216378 0.00238088 0.00279049 0.00302011 0.00238088 0.00259799 0.00302011 0.00328113 0.00279049 0.00302011 0.00341721 0.00387291 0.00302011 0.00328113 0.00387291 0.00416113 0.00259799 0.00273402 0.00328113 0.00351041 0.00273402 0.00287004 0.00351041 0.00366723 0.00328113 0.00351041 0.00416113 0.00443913 0.00351041 0.00366723 0.00443913 0.00471714 0.0017021 0.00173671 0.00228607 0.00227145 0.00173671 0.00177133 0.00227145 0.00227897 0.00228607 0.00227145 0.00287004 0.00298346 0.00227145 0.00227897 0.00298346 0.00299677 0.00177133 0.00172637 0.00227897 0.00225735 0.00172637 0.00168141 0.00225735 0.00217211 0.00227897 0.00225735 0.00299677 0.00297202 0.00225735 0.00217211 0.00297202 0.00287348 0.00287004 0.00298346 0.00366723 0.00379526 0.00298346 0.00299677 0.00379526 0.0038224 0.00366723 0.00379526 0.00471714 0.00482997 0.00379526 0.0038224 0.00482997 0.00494279 0.00299677 0.00297202 0.0038224 0.00380676 0.00297202 0.00287348 0.00380676 0.00367522 0.0038224 0.00380676 0.00494279 0.00485919 0.00380676 0.00367522 0.00485919 0.0047756 0.00341721 0.00387291 0.00430998 0.00476419 0.00387291 0.00416113 0.00476419 0.0053752 0.00430998 0.00476419 0.00520274 0.00599698 0.00476419 0.0053752 0.00599698 0.00658926 0.00520274 0.00599698 0.00646542 0.00733126 0.00599698 0.00658926 0.00733126 0.00814745 0.00646542 0.00733126 0.0077281 0.00910182 0.00733126 0.00814745 0.00910182 0.010137 0.00658926 0.00705985 0.00814745 0.00885574 0.00705985 0.00753044 0.00885574 0.00931964 0.00814745 0.00885574 0.010137 0.0110455 0.00885574 0.00931964 0.0110455 0.0117096 0.00753044 0.00773185 0.00931964 0.00971603 0.00773185 0.00793325 0.00971603 0.0098238 0.00931964 0.00971603 0.0117096 0.0120164 0.00971603 0.0098238 0.0120164 0.0123233 0.00526097 0.00698087 0.00430885 0.00552606 0.00698087 0.00870077 0.00552606 0.00712712 0.00430885 0.00552606 0.00298634 0.00385307 0.00552606 0.00712712 0.00385307 0.00516502 0.010137 0.0110455 0.0121388 0.0130792 0.0110455 0.0117096 0.0130792 0.0137184 0.0130792 0.0137184 0.0148017 0.0157272 0.00793325 0.00784354 0.0098238 0.009871 0.00784354 0.00775383 0.009871 0.00961238 0.0098238 0.009871 0.0123233 0.0122133 0.009871 0.00961238 0.0122133 0.0121034 0.00168141 0.00155427 0.00217211 0.00205365 0.00155427 0.00142713 0.00205365 0.00195254 0.00217211 0.00205365 0.00287348 0.00272312 0.00205365 0.00195254 0.00272312 0.00247794 0.00287348 0.00272312 0.00367522 0.00349633 0.00272312 0.00247794 0.00349633 0.00318995 0.00367522 0.00349633 0.0047756 0.00448125 0.00349633 0.00318995 0.00448125 0.0041869 0.00247794 0.00214596 0.00318995 0.00285086 0.00214596 0.00181399 0.00285086 0.00247562 0.00318995 0.00285086 0.0041869 0.00366208 0.00285086 0.00247562 0.00366208 0.00313726 0.00775383 0.00729258 0.00961238 0.00926323 0.00729258 0.00683133 0.00926323 0.00884506 0.00961238 0.00926323 0.0121034 0.0116259 0.00926323 0.00884506 0.0116259 0.0108588 0.0101583 0.0121484 0.011076 0.013098 0.011076 0.013098 0.0117458 0.0137447 0.013098 0.0148101 0.0137447 0.0157436 0.00313726 0.00243717 0.00417535 0.00321302 0.00243717 0.00173709 0.00321302 0.00221813 0.00417535 0.00321302 0.00521344 0.0042767 0.00321302 0.00221813 0.0042767 0.0029639 0.00173709 0.000868544 0.00221813 0.00114392 0.000868544 0 0.00114392 0 0.00221813 0.00114392 0.0029639 0.00154311 0.00114392 0 0.00154311 0 0.0148017 0.0157272 0.0160873 0.0170357 0.0148101 0.0160873 0.0157436 0.0170421 0.0029639 0.00154311 0.00383376 0.00201192 0.00154311 0 0.00201192 0 0.00383376 0.00201192 0.00514845 0.00286767 0.00201192 0 0.00286767 0 0.00226135 0.00286917 0.00248502 0.00310673 0.00286917 0.003477 0.00310673 0.00394303 0.00248502 0.00310673 0.0027087 0.0033734 0.00310673 0.00394303 0.0033734 0.0042383 0.0157272 0.0161532 0.0170357 0.0176248 0.0161532 0.0165793 0.0176248 0.0178314 0.0170357 0.0176248 0.0180148 0.0186977 0.0176248 0.0178314 0.0186977 0.0190835 0.0027087 0.0033734 0.00284765 0.00360889 0.0033734 0.0042383 0.00360889 0.00452271 0.00284765 0.00360889 0.0029866 0.00376819 0.00360889 0.00452271 0.00376819 0.00480711 0.003477 0.00435327 0.00394303 0.00481768 0.00435327 0.00522954 0.00481768 0.00603575 0.00394303 0.00481768 0.0042383 0.00543781 0.00481768 0.00603575 0.00543781 0.00663732 0.0157436 0.0170421 0.0161706 0.0176354 0.0170421 0.0180148 0.0176354 0.0187022 0.0161706 0.0176354 0.0165976 0.0178441 0.0176354 0.0187022 0.0178441 0.0190905 0.00522954 0.00647882 0.00603575 0.00735555 0.00647882 0.0077281 0.00735555 0.00911384 0.00603575 0.00735555 0.00663732 0.00818081 0.00735555 0.00911384 0.00818081 0.0101583 0.00663732 0.00818081 0.00711399 0.00889805 0.00818081 0.0101583 0.00889805 0.011076 0.00711399 0.00889805 0.00759065 0.00936959 0.00889805 0.011076 0.00936959 0.0117458 0.00184955 0.00241808 0.00190002 0.00241702 0.00241808 0.0029866 0.00241702 0.00310486 0.00190002 0.00241702 0.00195049 0.0024252 0.00241702 0.00310486 0.0024252 0.00312064 0.0029866 0.00376819 0.00310486 0.00389935 0.00376819 0.00480711 0.00389935 0.004917 0.00310486 0.00389935 0.00312064 0.00392568 0.00389935 0.004917 0.00392568 0.00502688 0.0121034 0.0116259 0.0142176 0.0138036 0.0116259 0.0108588 0.0138036 0.0130154 0.0142176 0.0138036 0.0163318 0.0156447 0.0108588 0.00976502 0.0130154 0.0119079 0.00976502 0.00867124 0.0119079 0.0104846 0.00195049 0.0024252 0.00189502 0.00240271 0.0024252 0.00312064 0.00240271 0.00309331 0.00189502 0.00240271 0.00183955 0.00230758 0.00240271 0.00309331 0.00230758 0.00298792 0.00312064 0.00392568 0.00309331 0.00390745 0.00392568 0.00502688 0.00390745 0.00494558 0.00309331 0.00390745 0.00298792 0.00376989 0.00390745 0.00494558 0.00376989 0.00486428 0.0163318 0.0156447 0.0175734 0.0170615 0.0156447 0.0148034 0.0170615 0.0161304 0.0175734 0.0170615 0.018815 0.0181152 0.0170615 0.0161304 0.0181152 0.0171306 0.0148034 0.0135488 0.0161304 0.014758 0.00286767 0 0.00350783 0 0.00759065 0.00936959 0.00780488 0.00977413 0.00936959 0.0117458 0.00977413 0.0120644 0.00780488 0.00977413 0.00801912 0.00988175 0.00977413 0.0120644 0.00988175 0.0123829 0.00801912 0.00988175 0.00788139 0.00992704 0.00988175 0.0123829 0.00992704 0.0122442 0.00788139 0.00992704 0.00774366 0.00992457 0.00992704 0.0122442 0.00992457 0.0121055 0.018815 0.0181152 0.0194768 0.0187923 0.0181152 0.0171306 0.0187923 0.0177658 0.0194768 0.0187923 0.0197886 0.0191814 0.0187923 0.0177658 0.0191814 0.0181275 0.00183955 0.00230758 0.00169809 0.00217746 0.00230758 0.00298792 0.00217746 0.00282994 0.00169809 0.00217746 0.00155662 0.00206535 0.00217746 0.00282994 0.00206535 0.00257407 0.00298792 0.00376989 0.00282994 0.00358537 0.00376989 0.00486428 0.00358537 0.00456011 0.00282994 0.00358537 0.00257407 0.00326993 0.00358537 0.00456011 0.00326993 0.00425594 0.00257407 0.00326993 0.0022286 0.00292231 0.00326993 0.00425594 0.00292231 0.00372314 0.0022286 0.00292231 0.00188312 0.00253673 0.00292231 0.00372314 0.00253673 0.00319034 0.00319034 0.00422565 0.00247809 0.00324949 0.00422565 0.00526097 0.00324949 0.00430885 0.00247809 0.00324949 0.00176584 0.00224338 0.00324949 0.00430885 0.00224338 0.00298634 0.00176584 0.00224338 0.00088292 0.00115676 0.00224338 0.00298634 0.00115676 0.00155449 0.00088292 0.00115676 0 0 0.00115676 0.00155449 0 0 0.00298634 0.00385307 0.00155449 0.00202172 0.00385307 0.00516502 0.00202172 0.00287601