# vtk DataFile Version 3.0
#This file was generated by the deal.II library on 2021/4/23 at 0:45:47
ASCII
DATASET UNSTRUCTURED_GRID

FIELD FieldData 2
CYCLE 1 1 int
186
TIME 1 1 double
0.372
POINTS 7152 double
-1 -1 0
-0.75 -1 0
-1 -0.75 0
-0.75 -0.75 0
-0.75 -1 0
-0.5 -1 0
-0.75 -0.75 0
-0.5 -0.75 0
-1 -0.75 0
-0.75 -0.75 0
-1 -0.5 0
-0.75 -0.5 0
-0.75 -0.75 0
-0.5 -0.75 0
-0.75 -0.5 0
-0.5 -0.5 0
-0.5 -1 0
-0.25 -1 0
-0.5 -0.75 0
-0.25 -0.75 0
-0.25 -1 0
0 -1 0
-0.25 -0.75 0
0 -0.75 0
-0.5 -0.75 0
-0.25 -0.75 0
-0.5 -0.5 0
-0.25 -0.5 0
0 -0.75 0
0.125 -0.75 0
0 -0.625 0
0.125 -0.625 0
0 -0.625 0
0.125 -0.625 0
0 -0.5 0
0.125 -0.5 0
0 -0.5 0
0.125 -0.5 0
0 -0.375 0
0.125 -0.375 0
-1 -0.5 0
-0.875 -0.5 0
-1 -0.375 0
-0.875 -0.375 0
-0.875 -0.5 0
-0.75 -0.5 0
-0.875 -0.375 0
-0.75 -0.375 0
-1 -0.375 0
-0.875 -0.375 0
-1 -0.25 0
-0.875 -0.25 0
-0.875 -0.375 0
-0.75 -0.375 0
-0.875 -0.25 0
-0.75 -0.25 0
-1 -0.25 0
-0.875 -0.25 0
-1 -0.125 0
-0.875 -0.125 0
-1 -0.125 0
-0.875 -0.125 0
-1 0 0
-0.875 0 0
-0.875 -0.125 0
-0.75 -0.125 0
-0.875 0 0
-0.75 0 0
-0.25 -0.75 0
-0.125 -0.75 0
-0.25 -0.625 0
-0.125 -0.625 0
-0.125 -0.75 0
0 -0.75 0
-0.125 -0.625 0
0 -0.625 0
-0.25 -0.625 0
-0.125 -0.625 0
-0.25 -0.5 0
-0.125 -0.5 0
-0.25 -0.5 0
-0.125 -0.5 0
-0.25 -0.375 0
-0.125 -0.375 0
-0.25 -0.375 0
-0.125 -0.375 0
-0.25 -0.25 0
-0.125 -0.25 0
0 -1 0
0.125 -1 0
0 -0.875 0
0.125 -0.875 0
0.125 -1 0
0.25 -1 0
0.125 -0.875 0
0.25 -0.875 0
0 -0.875 0
0.125 -0.875 0
0 -0.75 0
0.125 -0.75 0
-0.5 -0.5 0
-0.375 -0.5 0
-0.5 -0.375 0
-0.375 -0.375 0
-0.375 -0.5 0
-0.25 -0.5 0
-0.375 -0.375 0
-0.25 -0.375 0
0.25 -1 0
0.375 -1 0
0.25 -0.875 0
0.375 -0.875 0
0.375 -1 0
0.5 -1 0
0.375 -0.875 0
0.5 -0.875 0
0.375 -0.875 0
0.5 -0.875 0
0.375 -0.75 0
0.5 -0.75 0
0.5 -1 0
0.625 -1 0
0.5 -0.875 0
0.625 -0.875 0
0.625 -1 0
0.75 -1 0
0.625 -0.875 0
0.75 -0.875 0
0.5 -0.875 0
0.625 -0.875 0
0.5 -0.75 0
0.625 -0.75 0
-0.75 -0.5 0
-0.625 -0.5 0
-0.75 -0.375 0
-0.625 -0.375 0
-0.625 -0.5 0
-0.5 -0.5 0
-0.625 -0.375 0
-0.5 -0.375 0
-0.75 -0.375 0
-0.625 -0.375 0
-0.75 -0.25 0
-0.625 -0.25 0
-0.625 -0.375 0
-0.5 -0.375 0
-0.625 -0.25 0
-0.5 -0.25 0
0.5 -0.625 0
0.625 -0.625 0
0.5 -0.5 0
0.625 -0.5 0
0.625 -0.625 0
0.75 -0.625 0
0.625 -0.5 0
0.75 -0.5 0
0.75 -1 0
0.875 -1 0
0.75 -0.875 0
0.875 -0.875 0
0.875 -1 0
1 -1 0
0.875 -0.875 0
1 -0.875 0
0.75 -0.875 0
0.875 -0.875 0
0.75 -0.75 0
0.875 -0.75 0
0.875 -0.875 0
1 -0.875 0
0.875 -0.75 0
1 -0.75 0
0.875 -0.75 0
1 -0.75 0
0.875 -0.625 0
1 -0.625 0
0.75 -0.625 0
0.875 -0.625 0
0.75 -0.5 0
0.875 -0.5 0
0.875 -0.625 0
1 -0.625 0
0.875 -0.5 0
1 -0.5 0
0.375 -0.5 0
0.5 -0.5 0
0.375 -0.375 0
0.5 -0.375 0
0.375 -0.375 0
0.5 -0.375 0
0.375 -0.25 0
0.5 -0.25 0
-1 0 0
-0.875 0 0
-1 0.125 0
-0.875 0.125 0
-1 0.125 0
-0.875 0.125 0
-1 0.25 0
-0.875 0.25 0
-0.875 0.125 0
-0.75 0.125 0
-0.875 0.25 0
-0.75 0.25 0
0.375 -0.25 0
0.5 -0.25 0
0.375 -0.125 0
0.5 -0.125 0
0.25 -0.125 0
0.375 -0.125 0
0.25 0 0
0.375 0 0
0.375 -0.125 0
0.5 -0.125 0
0.375 0 0
0.5 0 0
0.5 -0.5 0
0.625 -0.5 0
0.5 -0.375 0
0.625 -0.375 0
0.625 -0.5 0
0.75 -0.5 0
0.625 -0.375 0
0.75 -0.375 0
0.5 -0.375 0
0.625 -0.375 0
0.5 -0.25 0
0.625 -0.25 0
0.625 -0.375 0
0.75 -0.375 0
0.625 -0.25 0
0.75 -0.25 0
0.75 -0.5 0
0.875 -0.5 0
0.75 -0.375 0
0.875 -0.375 0
0.875 -0.5 0
1 -0.5 0
0.875 -0.375 0
1 -0.375 0
0.875 -0.375 0
1 -0.375 0
0.875 -0.25 0
1 -0.25 0
0.5 -0.25 0
0.625 -0.25 0
0.5 -0.125 0
0.625 -0.125 0
0.5 -0.125 0
0.625 -0.125 0
0.5 0 0
0.625 0 0
0.625 -0.125 0
0.75 -0.125 0
0.625 0 0
0.75 0 0
0.75 -0.25 0
0.875 -0.25 0
0.75 -0.125 0
0.875 -0.125 0
0.875 -0.25 0
1 -0.25 0
0.875 -0.125 0
1 -0.125 0
0.75 -0.125 0
0.875 -0.125 0
0.75 0 0
0.875 0 0
0.875 -0.125 0
1 -0.125 0
0.875 0 0
1 0 0
-0.625 0.25 0
-0.5625 0.25 0
-0.625 0.3125 0
-0.5625 0.3125 0
-0.75 0.375 0
-0.6875 0.375 0
-0.75 0.4375 0
-0.6875 0.4375 0
-0.875 0.8125 0
-0.8125 0.8125 0
-0.875 0.875 0
-0.8125 0.875 0
-0.5 -0.0625 0
-0.4375 -0.0625 0
-0.5 0 0
-0.4375 0 0
-0.625 0 0
-0.5625 0 0
-0.625 0.0625 0
-0.5625 0.0625 0
-0.375 -0.25 0
-0.3125 -0.25 0
-0.375 -0.1875 0
-0.3125 -0.1875 0
-0.3125 -0.25 0
-0.25 -0.25 0
-0.3125 -0.1875 0
-0.25 -0.1875 0
-0.3125 -0.1875 0
-0.25 -0.1875 0
-0.3125 -0.125 0
-0.25 -0.125 0
-0.5625 0.125 0
-0.5 0.125 0
-0.5625 0.1875 0
-0.5 0.1875 0
-0.5625 0.1875 0
-0.5 0.1875 0
-0.5625 0.25 0
-0.5 0.25 0
-0.75 -0.25 0
-0.6875 -0.25 0
-0.75 -0.1875 0
-0.6875 -0.1875 0
-0.6875 -0.25 0
-0.625 -0.25 0
-0.6875 -0.1875 0
-0.625 -0.1875 0
-0.75 -0.1875 0
-0.6875 -0.1875 0
-0.75 -0.125 0
-0.6875 -0.125 0
-0.6875 -0.1875 0
-0.625 -0.1875 0
-0.6875 -0.125 0
-0.625 -0.125 0
-0.5 0.125 0
-0.4375 0.125 0
-0.5 0.1875 0
-0.4375 0.1875 0
-0.4375 0.125 0
-0.375 0.125 0
-0.4375 0.1875 0
-0.375 0.1875 0
-0.5 0.1875 0
-0.4375 0.1875 0
-0.5 0.25 0
-0.4375 0.25 0
-0.4375 0.1875 0
-0.375 0.1875 0
-0.4375 0.25 0
-0.375 0.25 0
-0.1875 -0.125 0
-0.125 -0.125 0
-0.1875 -0.0625 0
-0.125 -0.0625 0
-0.125 -0.125 0
-0.0625 -0.125 0
-0.125 -0.0625 0
-0.0625 -0.0625 0
-0.0625 -0.125 0
0 -0.125 0
-0.0625 -0.0625 0
0 -0.0625 0
-0.625 -0.25 0
-0.5625 -0.25 0
-0.625 -0.1875 0
-0.5625 -0.1875 0
-0.5625 -0.25 0
-0.5 -0.25 0
-0.5625 -0.1875 0
-0.5 -0.1875 0
-0.625 -0.1875 0
-0.5625 -0.1875 0
-0.625 -0.125 0
-0.5625 -0.125 0
-0.5625 -0.1875 0
-0.5 -0.1875 0
-0.5625 -0.125 0
-0.5 -0.125 0
-0.75 -0.125 0
-0.6875 -0.125 0
-0.75 -0.0625 0
-0.6875 -0.0625 0
-0.6875 -0.125 0
-0.625 -0.125 0
-0.6875 -0.0625 0
-0.625 -0.0625 0
-0.75 -0.0625 0
-0.6875 -0.0625 0
-0.75 0 0
-0.6875 0 0
-0.6875 -0.0625 0
-0.625 -0.0625 0
-0.6875 0 0
-0.625 0 0
-0.875 0.375 0
-0.8125 0.375 0
-0.875 0.4375 0
-0.8125 0.4375 0
-0.8125 0.375 0
-0.75 0.375 0
-0.8125 0.4375 0
-0.75 0.4375 0
-0.8125 0.4375 0
-0.75 0.4375 0
-0.8125 0.5 0
-0.75 0.5 0
-0.5 -0.25 0
-0.4375 -0.25 0
-0.5 -0.1875 0
-0.4375 -0.1875 0
-0.4375 -0.25 0
-0.375 -0.25 0
-0.4375 -0.1875 0
-0.375 -0.1875 0
-0.5 -0.1875 0
-0.4375 -0.1875 0
-0.5 -0.125 0
-0.4375 -0.125 0
-0.4375 -0.1875 0
-0.375 -0.1875 0
-0.4375 -0.125 0
-0.375 -0.125 0
0.125 -0.75 0
0.1875 -0.75 0
0.125 -0.6875 0
0.1875 -0.6875 0
0.1875 -0.75 0
0.25 -0.75 0
0.1875 -0.6875 0
0.25 -0.6875 0
0.125 -0.6875 0
0.1875 -0.6875 0
0.125 -0.625 0
0.1875 -0.625 0
0.1875 -0.6875 0
0.25 -0.6875 0
0.1875 -0.625 0
0.25 -0.625 0
0.125 -0.625 0
0.1875 -0.625 0
0.125 -0.5625 0
0.1875 -0.5625 0
0.1875 -0.625 0
0.25 -0.625 0
0.1875 -0.5625 0
0.25 -0.5625 0
0.125 -0.5625 0
0.1875 -0.5625 0
0.125 -0.5 0
0.1875 -0.5 0
0.1875 -0.5625 0
0.25 -0.5625 0
0.1875 -0.5 0
0.25 -0.5 0
-0.75 0.25 0
-0.6875 0.25 0
-0.75 0.3125 0
-0.6875 0.3125 0
-0.6875 0.25 0
-0.625 0.25 0
-0.6875 0.3125 0
-0.625 0.3125 0
-0.75 0.3125 0
-0.6875 0.3125 0
-0.75 0.375 0
-0.6875 0.375 0
-0.6875 0.3125 0
-0.625 0.3125 0
-0.6875 0.375 0
-0.625 0.375 0
0.0625 -0.125 0
0.125 -0.125 0
0.0625 -0.0625 0
0.125 -0.0625 0
0.0625 -0.0625 0
0.125 -0.0625 0
0.0625 0 0
0.125 0 0
-0.125 0.125 0
-0.0625 0.125 0
-0.125 0.1875 0
-0.0625 0.1875 0
-0.0625 0.125 0
0 0.125 0
-0.0625 0.1875 0
0 0.1875 0
-0.125 0.1875 0
-0.0625 0.1875 0
-0.125 0.25 0
-0.0625 0.25 0
-0.0625 0.1875 0
0 0.1875 0
-0.0625 0.25 0
0 0.25 0
-1 0.5 0
-0.9375 0.5 0
-1 0.5625 0
-0.9375 0.5625 0
-0.9375 0.5 0
-0.875 0.5 0
-0.9375 0.5625 0
-0.875 0.5625 0
-1 0.5625 0
-0.9375 0.5625 0
-1 0.625 0
-0.9375 0.625 0
-0.875 0.5 0
-0.8125 0.5 0
-0.875 0.5625 0
-0.8125 0.5625 0
-0.875 0.5625 0
-0.8125 0.5625 0
-0.875 0.625 0
-0.8125 0.625 0
-0.8125 0.5625 0
-0.75 0.5625 0
-0.8125 0.625 0
-0.75 0.625 0
0.125 -0.5 0
0.1875 -0.5 0
0.125 -0.4375 0
0.1875 -0.4375 0
0.1875 -0.5 0
0.25 -0.5 0
0.1875 -0.4375 0
0.25 -0.4375 0
0.125 -0.4375 0
0.1875 -0.4375 0
0.125 -0.375 0
0.1875 -0.375 0
0.1875 -0.4375 0
0.25 -0.4375 0
0.1875 -0.375 0
0.25 -0.375 0
-1 0.75 0
-0.9375 0.75 0
-1 0.8125 0
-0.9375 0.8125 0
-1 0.8125 0
-0.9375 0.8125 0
-1 0.875 0
-0.9375 0.875 0
-0.8125 0.875 0
-0.75 0.875 0
-0.8125 0.9375 0
-0.75 0.9375 0
-0.875 0.9375 0
-0.8125 0.9375 0
-0.875 1 0
-0.8125 1 0
-0.8125 0.9375 0
-0.75 0.9375 0
-0.8125 1 0
-0.75 1 0
-0.25 -0.25 0
-0.1875 -0.25 0
-0.25 -0.1875 0
-0.1875 -0.1875 0
-0.1875 -0.25 0
-0.125 -0.25 0
-0.1875 -0.1875 0
-0.125 -0.1875 0
-0.25 -0.1875 0
-0.1875 -0.1875 0
-0.25 -0.125 0
-0.1875 -0.125 0
-0.1875 -0.1875 0
-0.125 -0.1875 0
-0.1875 -0.125 0
-0.125 -0.125 0
0 -0.375 0
0.0625 -0.375 0
0 -0.3125 0
0.0625 -0.3125 0
0.0625 -0.375 0
0.125 -0.375 0
0.0625 -0.3125 0
0.125 -0.3125 0
0 -0.3125 0
0.0625 -0.3125 0
0 -0.25 0
0.0625 -0.25 0
0.0625 -0.3125 0
0.125 -0.3125 0
0.0625 -0.25 0
0.125 -0.25 0
-0.75 0.0625 0
-0.6875 0.0625 0
-0.75 0.125 0
-0.6875 0.125 0
-0.6875 0.0625 0
-0.625 0.0625 0
-0.6875 0.125 0
-0.625 0.125 0
-0.75 0.125 0
-0.6875 0.125 0
-0.75 0.1875 0
-0.6875 0.1875 0
-0.6875 0.125 0
-0.625 0.125 0
-0.6875 0.1875 0
-0.625 0.1875 0
-0.75 0.1875 0
-0.6875 0.1875 0
-0.75 0.25 0
-0.6875 0.25 0
-0.6875 0.1875 0
-0.625 0.1875 0
-0.6875 0.25 0
-0.625 0.25 0
0.125 -0.375 0
0.1875 -0.375 0
0.125 -0.3125 0
0.1875 -0.3125 0
0.1875 -0.375 0
0.25 -0.375 0
0.1875 -0.3125 0
0.25 -0.3125 0
0.125 -0.3125 0
0.1875 -0.3125 0
0.125 -0.25 0
0.1875 -0.25 0
0.1875 -0.3125 0
0.25 -0.3125 0
0.1875 -0.25 0
0.25 -0.25 0
-0.375 0 0
-0.3125 0 0
-0.375 0.0625 0
-0.3125 0.0625 0
-0.3125 0 0
-0.25 0 0
-0.3125 0.0625 0
-0.25 0.0625 0
-0.375 0.0625 0
-0.3125 0.0625 0
-0.375 0.125 0
-0.3125 0.125 0
-0.3125 0.0625 0
-0.25 0.0625 0
-0.3125 0.125 0
-0.25 0.125 0
-0.875 -0.25 0
-0.8125 -0.25 0
-0.875 -0.1875 0
-0.8125 -0.1875 0
-0.8125 -0.25 0
-0.75 -0.25 0
-0.8125 -0.1875 0
-0.75 -0.1875 0
-0.875 -0.1875 0
-0.8125 -0.1875 0
-0.875 -0.125 0
-0.8125 -0.125 0
-0.8125 -0.1875 0
-0.75 -0.1875 0
-0.8125 -0.125 0
-0.75 -0.125 0
-0.125 -0.625 0
-0.0625 -0.625 0
-0.125 -0.5625 0
-0.0625 -0.5625 0
-0.0625 -0.625 0
0 -0.625 0
-0.0625 -0.5625 0
0 -0.5625 0
-0.125 -0.5625 0
-0.0625 -0.5625 0
-0.125 -0.5 0
-0.0625 -0.5 0
-0.0625 -0.5625 0
0 -0.5625 0
-0.0625 -0.5 0
0 -0.5 0
-0.125 -0.5 0
-0.0625 -0.5 0
-0.125 -0.4375 0
-0.0625 -0.4375 0
-0.0625 -0.5 0
0 -0.5 0
-0.0625 -0.4375 0
0 -0.4375 0
-0.125 -0.4375 0
-0.0625 -0.4375 0
-0.125 -0.375 0
[...]
POINT_DATA 7152
SCALARS U double 1
LOOKUP_TABLE default
0 0 0 8.92746e-05 0 0 8.92746e-05 0.000201239 0 8.92746e-05 0 0.000167877 8.92746e-05 0.000201239 0.000167877 0.000350813 0 0 0.000201239 0.00035035 0 0 0.00035035 0.000537005 0.000201239 0.00035035 0.000350813 0.000564949 0.000537005 0.000624773 0.000718332 0.00083349 0.000718332 0.00083349 0.000809298 0.000924593 0.000809298 0.000924593 0.000790719 0.000876886 0 8.39383e-05 0 0.000108827 8.39383e-05 0.000167877 0.000108827 0.000216821 0 0.000108827 0 0.000142241 0.000108827 0.000216821 0.000142241 0.000285217 0 0.000142241 0 0.000205796 0 0.000205796 0 0.00032254 0.000205796 0.000412279 0.00032254 0.000652191 0.00035035 0.000443678 0.00045765 0.000593455 0.000443678 0.000537005 0.000593455 0.000718332 0.00045765 0.000593455 0.000564949 0.000682124 0.000564949 0.000682124 0.000613438 0.000703198 0.000613438 0.000703198 0.000665602 0.000679758 0 0 0.000268503 0.00033392 0 0 0.00033392 0.000369621 0.000268503 0.00033392 0.000537005 0.000624773 0.000350813 0.000457881 0.000427719 0.000526051 0.000457881 0.000564949 0.000526051 0.000613438 0 0 0.000369621 0.000388941 0 0 0.000388941 0.00037492 0.000388941 0.00037492 0.000717698 0.000692611 0 0 0.00037492 0.000322278 0 0 0.000322278 0.000233028 0.00037492 0.000322278 0.000692611 0.00059798 0.000167877 0.000259345 0.000216821 0.000323434 0.000259345 0.000350813 0.000323434 0.000427719 0.000216821 0.000323434 0.000285217 0.000419307 0.000323434 0.000427719 0.000419307 0.000537538 0.000912151 0.00079342 0.00100527 0.000869385 0.00079342 0.000586315 0.000869385 0.000642977 0 0 0.000233028 0.000118503 0 0 0.000118503 0 0.000233028 0.000118503 0.000438771 0.000231645 0.000118503 0 0.000231645 0 0.000231645 0 0.000312042 0 0.000586315 0.000312042 0.000642977 0.000343915 0.000312042 0 0.000343915 0 0.00104026 0.00100527 0.000981067 0.000937088 0.000981067 0.000937088 0.000758542 0.000723127 0 0.00032254 0 0.000519582 0 0.000519582 0 0.000801158 0.000519582 0.00106186 0.000801158 0.00165465 0.000758542 0.000723127 0.000413882 0.000394683 0.000406999 0.000413882 0 0 0.000413882 0.000394683 0 0 0.00100527 0.000869385 0.000937088 0.000809876 0.000869385 0.000642977 0.000809876 0.000599899 0.000937088 0.000809876 0.000723127 0.000624865 0.000809876 0.000599899 0.000624865 0.000458806 0.000642977 0.000343915 0.000599899 0.000317747 0.000343915 0 0.000317747 0 0.000317747 0 0.000239538 0 0.000723127 0.000624865 0.000394683 0.000337189 0.000394683 0.000337189 0 0 0.000337189 0.000242915 0 0 0.000458806 0.000239538 0.000242915 0.000123619 0.000239538 0 0.000123619 0 0.000242915 0.000123619 0 0 0.000123619 0 0 0 0.00252946 0.00292064 0.00307672 0.00355454 0.00235878 0.00299996 0.00268113 0.00341949 0.00104254 0.00161154 0.000739151 0.00114315 0.0009504 0.00100349 0.00121619 0.00128177 0.000976587 0.00110785 0.00124688 0.00142879 0.000625544 0.000653246 0.00070244 0.000723708 0.000653246 0.000665602 0.000723708 0.000716376 0.000723708 0.000716376 0.000834281 0.000805729 0.0018375 0.00202623 0.00233466 0.00258034 0.00233466 0.00258034 0.00292064 0.00323145 0.000285217 0.000352262 0.000335138 0.000415386 0.000352262 0.000419307 0.000415386 0.000490638 0.000335138 0.000415386 0.000412279 0.00052127 0.000415386 0.000490638 0.00052127 0.000612497 0.00202623 0.00214135 0.00258034 0.00273252 0.00214135 0.00215775 0.00273252 0.00275391 0.00258034 0.00273252 0.00323145 0.00343071 0.00273252 0.00275391 0.00343071 0.00347648 0.000740214 0.00065998 0.000829276 0.000679839 0.00065998 0.000563127 0.000679839 0.000498675 0.000563127 0.000480814 0.000498675 0.000332346 0.000419307 0.000478423 0.000490638 0.00056348 0.000478423 0.000537538 0.00056348 0.000622326 0.000490638 0.00056348 0.000612497 0.000700017 0.00056348 0.000622326 0.000700017 0.00076286 0.000412279 0.00052127 0.000532235 0.000641111 0.00052127 0.000612497 0.000641111 0.000753292 0.000532235 0.000641111 0.000652191 0.000829365 0.000641111 0.000753292 0.000829365 0.000976587 0.00113212 0.00172296 0.00127636 0.00196205 0.00172296 0.00235878 0.00196205 0.00268113 0.00196205 0.00268113 0.00215174 0.00294457 0.000537538 0.000591419 0.000622326 0.000674071 0.000591419 0.000625544 0.000674071 0.00070244 0.000622326 0.000674071 0.00076286 0.000819705 0.000674071 0.00070244 0.000819705 0.000839231 0.000624773 0.000655355 0.000729132 0.000785665 0.000655355 0.000683662 0.000785665 0.00081592 0.000729132 0.000785665 0.00083349 0.000869207 0.000785665 0.00081592 0.000869207 0.000905021 0.00083349 0.000869207 0.000879041 0.000943126 0.000869207 0.000905021 0.000943126 0.000977162 0.000879041 0.000943126 0.000924593 0.000958691 0.000943126 0.000977162 0.000958691 0.000995792 0.00165465 0.00210226 0.00200573 0.00254507 0.00210226 0.00252946 0.00254507 0.00307672 0.00200573 0.00254507 0.00235878 0.00299996 0.00254507 0.00307672 0.00299996 0.00362959 0.000429415 0.000403671 0.000244398 0.000216031 0.000244398 0.000216031 0 0 0.00109446 0.000575232 0.00138153 0.000722118 0.000575232 0 0.000722118 0 0.00138153 0.000722118 0.001739 0.000907544 0.000722118 0 0.000907544 0 0 0.000686669 0 0.000723822 0.000686669 0.00140081 0.000723822 0.00147287 0 0.000723822 0 0.000730641 0.00140081 0.00215174 0.00147287 0.00227115 0.00147287 0.00227115 0.00148717 0.00228604 0.00227115 0.00311652 0.00228604 0.00314936 0.000924593 0.000958691 0.000900739 0.000963337 0.000958691 0.000995792 0.000963337 0.000994682 0.000900739 0.000963337 0.000876886 0.000907495 0.000963337 0.000994682 0.000907495 0.000937274 0 0.000625902 0 0.000515953 0 0.000515953 0 0.000358952 0.00114315 0.00157829 0.000591417 0.000822019 0.000387989 0.000591417 0 0 0.000591417 0.000822019 0 0 0.000665602 0.00067268 0.000716376 0.000696151 0.00067268 0.000679758 0.000696151 0.000661447 0.000716376 0.000696151 0.000805729 0.000740214 0.000696151 0.000661447 0.000740214 0.00065998 0.000790719 0.000833802 0.000748206 0.000778046 0.000833802 0.000876886 0.000778046 0.000807958 0.000748206 0.000778046 0.00067804 0.000685423 0.000778046 0.000807958 0.000685423 0.000699366 0.000836516 0.00104964 0.00106186 0.00134139 0.00104964 0.00124688 0.00134139 0.00159779 0.00106186 0.00134139 0.00135826 0.00169425 0.00134139 0.00159779 0.00169425 0.00202665 0.00135826 0.00169425 0.00165465 0.00210226 0.00169425 0.00202665 0.00210226 0.00252946 0.000876886 0.000907495 0.000807958 0.000838304 0.000907495 0.000937274 0.000838304 0.000860619 0.000807958 0.000838304 0.000699366 0.000716155 0.000838304 0.000860619 0.000716155 0.000732244 0.00129849 0.00125856 0.00166734 0.00160699 0.00125856 0.0011541 0.00160699 0.00145579 0.00166734 0.00160699 0.00215775 0.00207616 0.00160699 0.00145579 0.00207616 0.0018683 0.000142241 0.000213729 0.000174018 0.000253124 0.000213729 0.000285217 0.000253124 0.000335138 0.000174018 0.000253124 0.000205796 0.000309037 0.000253124 0.000335138 0.000309037 0.000412279 0.000593455 0.000655894 0.00063779 0.000711752 0.000655894 0.000718332 0.000711752 0.000763815 0.00063779 0.000711752 0.000682124 0.000735506 0.000711752 0.000763815 0.000735506 0.000809298 0.000682124 0.000735506 0.000692661 0.000756749 0.000735506 0.000809298 0.000756749 0.000800009 0.000692661 0.000756749 0.000703198 0.000740398 0.000756749 0.000800009 0.000740398 0.000790719 0.00032254 0.000487366 0.000421061 0.000623336 0.000487366 0.000652191 0.000623336 0.000836516 0.000421061 0.000623336 0.000519582 0.000790723 0.000623336 0.000836516 0.000790723 0.00106186 0.000703198 0.000740398 0.000691478 0.000720343 0.000740398 0.000790719 0.000720343 0.000748206 0.000691478 0.000720343 0.000679758 0.000675522 0.000720343 0.000748206 0.000675522 0.00067804 0.00067804 0.000685423 0.00059846 0.000574095 0.000685423 0.000699366 0.000574095 0.000575506 0.00059846 0.000574095 0.000480814 0.000429415 0.000574095 0.000575506 0.000429415 0.000403671 0 0.000553128 0 0.000629261 0.000553128 0.00113212 0.000629261 0.00127636 0 0.000629261 0 0.000686669 0.000629261 0.00127636 0.000686669 0.00140081 0.00033392 0.000351771 0.000479347 0.000518186 0.000351771 0.000369621 0.000518186 0.000538868 0.000479347 0.000518186 0.000624773 0.000655355 0.000518186 0.000538868 0.000655355 0.000683662 0.000427719 0.000476885 0.000482629 0.000521475 0.000476885 0.000526051 0.000521475 0.000563276 0.000482629 0.000521475 0.000537538 0.000591419 0.000521475 0.000563276 0.000591419 0.000625544 0.000526051 0.000569744 0.000563276 0.000602575 0.000569744 0.000613438 0.000602575 0.00063952 0.000563276 0.000602575 0.000625544 0.000653246 0.000602575 0.00063952 0.000653246 0.000665602 0.000369621 0.000379281 0.000538868 0.000558125 0.000379281 0.000388941 0.000558125 0.00055332 0.000538868 0.000558125 0.000683662 0.000705166 0.000558125 0.00055332 0.000705166 0.000717698 0.000683662 0.000705166 0.00081592 0.000842721 0.000705166 0.000717698 0.000842721 0.000846646 0.00081592 0.000842721 0.000905021 0.000932955 0.000842721 0.000846646 0.000932955 0.000938264 0.0011541 0.000979757 0.00145579 0.00120939 0.000979757 0.000742031 0.00120939 0.000876173 0.00145579 0.00120939 0.0018683 0.00153795 0.00120939 0.000876173 0.00153795 0.00109446 0 0.000730641 0 0.000696668 0.000730641 0.00148717 0.000696668 0.00142704 0 0.000696668 0 0.000625902 0.000696668 0.00142704 0.000625902 0.00127481 0.000717698 0.000705155 0.000846646 0.000845661 0.000705155 0.000692611 0.000845661 0.000812318 0.000846646 0.000845661 0.000938264 0.000933016 0.000845661 0.000812318 0.000933016 0.000912151 0.000905021 0.000932955 0.000977162 0.00100775 0.000932955 0.000938264 0.00100775 0.00101125 0.000977162 0.00100775 0.000995792 0.00102319 0.00100775 0.00101125 0.00102319 0.00104026 0.000938264 0.000933016 0.00101125 0.0010096 0.000933016 0.000912151 0.0010096 0.00095871 0.00101125 0.0010096 0.00104026 0.00102276 0.0010096 0.00095871 0.00102276 0.00100527 0.000322278 0.000277653 0.000460129 0.000413789 0.000277653 0.000233028 0.000413789 0.000335899 0.000460129 0.000413789 0.00059798 0.000523822 0.000413789 0.000335899 0.000523822 0.000438771 0.000679758 0.000675522 0.000661447 0.000626424 0.000675522 0.00067804 0.000626424 0.00059846 0.000661447 0.000626424 0.00065998 0.000563127 0.000626424 0.00059846 0.000563127 0.000480814 0 0.000400579 0 0.000474343 0.000400579 0.000801158 0.000474343 0.00096844 0 0.000474343 0 0.000553128 0.000474343 0.00096844 0.000553128 0.00113212 0.000801158 0.0012279 0.00096844 0.0014709 0.0012279 0.00165465 0.0014709 0.00200573 0.00096844 0.0014709 0.00113212 0.00172296 0.0014709 0.00200573 0.00172296 0.00235878 0.000692611 0.000645295 0.000812318 0.000775992 0.000645295 0.00059798 0.000775992 0.000703634 0.000812318 0.000775992 0.000912151 0.000852786 0.000775992 0.000703634 0.000852786 0.00079342 0.00059798 0.000523822 0.000703634 0.000628838 0.000523822 0.000438771 0.000628838 0.000520064 0.000703634 0.000628838 0.00079342 0.000689868 0.000628838 0.000520064 0.000689868 0.000586315 0.000438771 0.000335208 0.000520064 0.000408093 0.000335208 0.000231645 0.000408093 0.000271843 0.000520064 0.000408093 0.000586315 0.000449179 0.000408093 0.000271843 0.000449179 0.000312042 0.000995792 0.00102319 0.000994682 0.0010244 0.00102319 0.00104026 0.0010244 0.00101066 0.000994682 0.0010244 0.000937274 0.000958699 0.0010244 0.00101066 0.000958699 0.000981067 0.000937274 0.000958699 0.000860619 0.000881948 0.000958699 0.000981067 0.000881948 0.000869804 0.000860619 0.000881948 0.000732244 0.000744166 0.000881948 0.000869804 0.000744166 0.000758542 0.000699366 0.000716155 0.000575506 0.000579225 0.000716155 0.000732244 0.000579225 0.000587805 0.000575506 0.000579225 0.000403671 0.000399277 0.000579225 0.000587805 0.000399277 0.000406999 0.000403671 0.000399277 0.000216031 0.000209244 0.000399277 0.000406999 0.000209244 0.0002035 0.000216031 0.000209244 0 0 0.000209244 0.0002035 0 0 0.000732244 0.000744166 0.000587805 0.00059711 0.000744166 0.000758542 0.00059711 0.000586212 0.000587805 0.00059711 0.000406999 0.000410441 0.00059711 0.000586212 0.000410441 0.000413882 0.000599899 0.000458823 0.000529352 0.000420135 0.000458823 0.000317747 0.000420135 0.000278642 0.000529352 0.000420135 0.000458806 0.000349172 0.000420135 0.000278642 0.000349172 0.000239538 0.000624865 0.000541835 0.000481027 0.000431568 0.000541835 0.000458806 0.000431568 0.000350861 0.000481027 0.000431568 0.000337189 0.000290052 0.000431568 0.000350861 0.000290052 0.000242915 0.001739 0.000907544 0.00214996 0.00111847 0.000907544 0 0.00111847 0 0.00257322 0.00133689 0.0029825 0.00154799 0.0029825 0.00154799 0.00332972 0.00172955 0 0.000358952 0 0.000188234 0.000358952 0.000739151 0.000188234 0.000387989 0 0.000188234 0 0 0.000188234 0.000387989 0 0 0.00323145 0.00343071 0.00395309 0.00420343 0.000505702 0 0 0 0.00221929 0.00287005 0.00157829 0.00204109 0.00157829 0.00204109 0.000822019 0.00105843 0.000822019 0.00105843 0 0 0.00249493 0.00293135 0.00129611 0.00152111 0.00293135 0.00329608 0.00152111 0.00171185 0.00292064 0.00307604 0.00323759 0.00342637 0.00307604 0.00323145 0.00342637 0.00359227 0.00323759 0.00342637 0.00355454 0.00377982 0.00342637 0.00359227 0.00377982 0.00395309 0.00307672 0.00331563 0.00335315 0.00363322 0.00331563 0.00355454 0.00363322 0.00388108 0.00335315 0.00363322 0.00362959 0.00393668 0.00363322 0.00388108 0.00393668 0.00420902 0.00368456 0.00338115 0.00404116 0.00371196 0.00338115 0.00302279 0.00371196 0.00331844 0.00302279 0.00260964 0.00331844 0.00286715 0.00260964 0.00214996 0.00286715 0.00235002 0.00355454 0.00377982 0.00388108 0.00412799 0.00377982 0.00395309 0.00412799 0.00431496 0.00388108 0.00412799 0.00420902 0.00447736 0.00412799 0.00431496 0.00447736 0.00468706 0.00299996 0.00331477 0.00320972 0.00356681 0.00331477 0.00362959 0.00356681 0.00390349 0.00320972 0.00356681 0.00341949 0.00378998 0.00356681 0.00390349 0.00378998 0.00415139 0.00395309 0.00407826 0.00431496 0.00447996 0.00407826 0.00420343 0.00447996 0.00459819 0.00431496 0.00447996 0.00468706 0.00486913 0.00447996 0.00459819 0.00486913 0.00500424 0.00420343 0.00426239 0.00459819 0.00466051 0.00459819 0.00466051 0.00500424 0.0050757 0.00268113 0.00305031 0.00281285 0.00321718 0.00305031 0.00341949 0.00321718 0.00361571 0.00281285 0.00321718 0.00294457 0.00334776 0.00321718 0.00361571 0.00334776 0.00376534 0.00341949 0.00378998 0.00361571 0.00401061 0.00378998 0.00415139 0.00401061 0.00439426 0.00361571 0.00401061 0.00376534 0.00417881 0.00401061 0.00439426 0.00417881 0.0045816 0.00362959 0.00393668 0.00390349 0.00423688 0.00393668 0.00420902 0.00423688 0.00453236 0.00390349 0.00423688 0.00415139 0.0045075 0.00423688 0.00453236 0.0045075 0.0048252 0.00420775 0.00409846 0.00461413 0.00449299 0.00409846 0.0039196 0.00449299 0.00430191 0.0039196 0.00368456 0.00430191 0.00404116 0.00468706 0.00486913 0.00505606 0.00525364 0.00525364 0.00538554 0.00560236 0.00577117 0.00420902 0.00447736 0.00453236 0.00482573 0.00447736 0.00468706 0.00482573 0.00505606 0.00453236 0.00482573 0.0048252 0.00514389 0.00482573 0.00505606 0.00514389 0.00539071 0.00415139 0.0045075 0.00439426 0.00477621 0.0045075 0.0048252 0.00477621 0.00512034 0.00439426 0.00477621 0.0045816 0.00498712 0.00477621 0.00512034 0.00498712 0.00535021 0.00404896 0.00449044 0.00404823 0.00449713 0.0045816 0.00498712 0.00476751 0.00516714 0.00516714 0.00554467 0.00529116 0.00570119 0.0018683 0.00170312 0.00208851 0.00193545 0.00170312 0.00153795 0.00193545 0.00171456 0.00208851 0.00193545 0.00237287 0.00219705 0.00193545 0.00171456 0.00219705 0.00194796 0.00084078 0 0.000774498 0 0.000774498 0 0.000694319 0 0.00153795 0.0013162 0.00171456 0.00149579 0.0013162 0.00109446 0.00149579 0.001238 0.00171456 0.00149579 0.00194796 0.00169785 0.00149579 0.001238 0.00169785 0.00138153 0.000694319 0 0.000600852 0 0.000600852 0 0.000498515 0 0.00404823 0.00449713 0.00399117 0.0044417 0.00399117 0.0044417 0.00388343 0.00431937 0.000839808 0.000773855 0 0 0.000773855 0.00069392 0 0 0.0048252 0.00514389 0.00512034 0.00543182 0.00514389 0.00539071 0.00543182 0.00570974 0.00512034 0.00543182 0.00535021 0.00569022 0.00543182 0.00570974 0.00569022 0.00599493 0.00069392 0.000600626 0 0 0.000600626 0.000498406 0 0 0.00388343 0.00431937 0.00371421 0.00413387 0.00371421 0.00413387 0.00349048 0.00388224 0.00194796 0.00169785 0.00218085 0.00189679 0.00169785 0.00138153 0.00189679 0.00156026 0.00218085 0.00189679 0.00245213 0.00213355 0.00189679 0.00156026 0.00213355 0.001739 0.00349048 0.00388224 0.00320131 0.00356479 0.00320131 0.00356479 0.00287005 0.0031834 0.000498515 0 0.000376535 0 0.000760398 0.000376535 0.000505702 0.000252851 0.000376535 0 0.000252851 0 0.000760346 0.000505702 0.000376489 0.000252851 0.000498406 0.000376489 0 0 0.000376489 0.000252851 0 0 0.00148717 0.00188661 0.00145711 0.00185641 0.00188661 0.00228604 0.00185641 0.00227103 0.00145711 0.00185641 0.00142704 0.00178831 0.00185641 0.00227103 0.00178831 0.00218975 0.00228604 0.0027177 0.00227103 0.00268106 0.0027177 0.00314936 0.00268106 0.00311844 0.00227103 0.00268106 0.00218975 0.0025868 0.00268106 0.00311844 0.0025868 0.00300906 0.00287005 0.0031834 0.00245557 0.00274743 0.00245557 0.00274743 0.00204109 0.00225276 0.00142704 0.00178831 0.00135093 0.00172255 0.00178831 0.00218975 0.00172255 0.00210673 0.00135093 0.00172255 0.00127481 0.00160371 0.00172255 0.00210673 0.00160371 0.0019625 0.00218975 0.0025868 0.00210673 0.0024898 0.0025868 0.00300906 0.0024898 0.00289819 0.00210673 0.0024898 0.0019625 0.00231962 0.0024898 0.00289819 0.00231962 0.0026998 0.00127481 0.00160371 0.0011775 0.00148452 0.00160371 0.0019625 0.00148452 0.00181526 0.0011775 0.00148452 0.00104254 0.00132704 0.00148452 0.00181526 0.00132704 0.00161154 0.00267224 0.00245507 0.00298866 0.00275132 0.00245507 0.00218085 0.00275132 0.00245213 0.0019625 0.00231962 0.00181526 0.00214514 0.00231962 0.0026998 0.00214514 0.00249894 0.00181526 0.00214514 0.00161154 0.00189625 0.00214514 0.00249894 0.00189625 0.00221929 0.00161154 0.00189625 0.00137734 0.0016514 0.00189625 0.00221929 0.0016514 0.00189879 0.00137734 0.0016514 0.00114315 0.00136072 0.0016514 0.00189879 0.00136072 0.00157829 0.00076286 0.000791282 0.000839505 0.000872392 0.000791282 0.000819705 0.000872392 0.000892943 0.000839505 0.000872392 0.0009504 0.000976943 0.000872392 0.000892943 0.000976943 0.00100349 0.000819705 0.000829468 0.000892943 0.00091146 0.000829468 0.000839231 0.00091146 0.000915919 0.000892943 0.00091146 0.00100349 0.00102735 0.00091146 0.000915919 0.00102735 0.00102822 0.00100349 0.00102735 0.00114263 0.0011453 0.00102735 0.00102822 0.0011453 0.00114228 0.00114263 0.0011453 0.00128177 0.00130806 0.0011453 0.00114228 0.00130806 0.00129849 0.000839231 0.000847235 0.000915919 0.000919216 0.000847235 0.000834281 0.000919216 0.000904671 0.000915919 0.000919216 0.00102822 0.00102805 0.000919216 0.000904671 0.00102805 0.00100813 0.000834281 0.000820005 0.000904671 0.000889825 0.000820005 0.000805729 0.000889825 0.000856879 0.000904671 0.000889825 0.00100813 0.000985252 0.000889825 0.000856879 0.000985252 0.000941506 0.00298866 0.00275132 0.00333418 0.00305559 0.00275132 0.00245213 0.00305559 0.00273661 0.00102822 0.00102805 0.00114228 0.00113832 0.00102805 0.00100813 0.00113832 0.00110905 0.00114228 0.00113832 0.00129849 0.00127853 0.00113832 0.00110905 0.00127853 0.00125856 0.00245213 0.00213355 0.00273661 0.00235857 0.00213355 0.001739 0.00235857 0.00194448 0.00273661 0.00235857 0.00302279 0.00260964 0.00235857 0.00194448 0.00260964 0.00214996 0.00599493 0.00621755 0.0062021 0.00647471 0.00621755 0.00640468 0.00647471 0.00663929 0.0062021 0.00647471 0.00637628 0.00662651 0.00647471 0.00663929 0.00662651 0.0068196 0.00347648 0.00343263 0.00385272 0.00381122 0.00343263 0.0033284 0.00381122 0.00371032 0.00385272 0.00381122 0.00426735 0.00420775 0.0033284 0.0031929 0.00371032 0.00354495 0.0031929 0.00298866 0.00354495 0.00333418 0.00314936 0.00358721 0.00311844 0.0035482 0.00358721 0.00404823 0.0035482 0.00399117 0.00311844 0.0035482 0.00300906 0.00344882 0.0035482 0.00399117 0.00344882 0.00388343 0.00289819 0.00329299 0.0026998 0.00310285 0.0026998