<?xml version="1.0" ?> 
<!-- 
# vtk DataFile Version 3.0
#This file was generated by the deal.II library on 21:43:26 at 2021/4/29
-->
<VTKFile type="UnstructuredGrid" version="0.1" byte_order="LittleEndian">
<UnstructuredGrid>
<Piece NumberOfPoints="65536" NumberOfCells="16384" >
  <Points>
    <DataArray type="Float32" NumberOfComponents="3" format="ascii">
-1 -1 0
-0.984375 -1 0
-1 -0.984375 0
-0.984375 -0.984375 0
-0.984375 -1 0
-0.96875 -1 0
-0.984375 -0.984375 0
-0.96875 -0.984375 0
-1 -0.984375 0
-0.984375 -0.984375 0
-1 -0.96875 0
-0.984375 -0.96875 0
-0.984375 -0.984375 0
-0.96875 -0.984375 0
-0.984375 -0.96875 0
-0.96875 -0.96875 0
-0.96875 -1 0
-0.953125 -1 0
-0.96875 -0.984375 0
-0.953125 -0.984375 0
-0.953125 -1 0
-0.9375 -1 0
-0.953125 -0.984375 0
-0.9375 -0.984375 0
-0.96875 -0.984375 0
-0.953125 -0.984375 0
-0.96875 -0.96875 0
-0.953125 -0.96875 0
-0.953125 -0.984375 0
-0.9375 -0.984375 0
-0.953125 -0.96875 0
-0.9375 -0.96875 0
-1 -0.96875 0
-0.984375 -0.96875 0
-1 -0.953125 0
-0.984375 -0.953125 0
-0.984375 -0.96875 0
-0.96875 -0.96875 0
-0.984375 -0.953125 0
-0.96875 -0.953125 0
-1 -0.953125 0
-0.984375 -0.953125 0
-1 -0.9375 0
-0.984375 -0.9375 0
-0.984375 -0.953125 0
-0.96875 -0.953125 0
-0.984375 -0.9375 0
-0.96875 -0.9375 0
-0.96875 -0.96875 0
-0.953125 -0.96875 0
-0.96875 -0.953125 0
-0.953125 -0.953125 0
-0.953125 -0.96875 0
-0.9375 -0.96875 0
-0.953125 -0.953125 0
-0.9375 -0.953125 0
-0.96875 -0.953125 0
-0.953125 -0.953125 0
-0.96875 -0.9375 0
-0.953125 -0.9375 0
-0.953125 -0.953125 0
-0.9375 -0.953125 0
-0.953125 -0.9375 0
-0.9375 -0.9375 0
-0.9375 -1 0
-0.921875 -1 0
-0.9375 -0.984375 0
-0.921875 -0.984375 0
-0.921875 -1 0
-0.90625 -1 0
-0.921875 -0.984375 0
-0.90625 -0.984375 0
-0.9375 -0.984375 0
-0.921875 -0.984375 0
-0.9375 -0.96875 0
-0.921875 -0.96875 0
-0.921875 -0.984375 0
-0.90625 -0.984375 0
-0.921875 -0.96875 0
-0.90625 -0.96875 0
-0.90625 -1 0
-0.890625 -1 0
-0.90625 -0.984375 0
-0.890625 -0.984375 0
-0.890625 -1 0
-0.875 -1 0
-0.890625 -0.984375 0
-0.875 -0.984375 0
-0.90625 -0.984375 0
-0.890625 -0.984375 0
-0.90625 -0.96875 0
-0.890625 -0.96875 0
-0.890625 -0.984375 0
-0.875 -0.984375 0
-0.890625 -0.96875 0
-0.875 -0.96875 0
-0.9375 -0.96875 0
-0.921875 -0.96875 0
-0.9375 -0.953125 0
-0.921875 -0.953125 0
-0.921875 -0.96875 0
-0.90625 -0.96875 0
-0.921875 -0.953125 0
-0.90625 -0.953125 0
-0.9375 -0.953125 0
-0.921875 -0.953125 0
-0.9375 -0.9375 0
-0.921875 -0.9375 0
-0.921875 -0.953125 0
-0.90625 -0.953125 0
-0.921875 -0.9375 0
-0.90625 -0.9375 0
-0.90625 -0.96875 0
-0.890625 -0.96875 0
-0.90625 -0.953125 0
-0.890625 -0.953125 0
-0.890625 -0.96875 0
-0.875 -0.96875 0
-0.890625 -0.953125 0
-0.875 -0.953125 0
-0.90625 -0.953125 0
-0.890625 -0.953125 0
-0.90625 -0.9375 0
-0.890625 -0.9375 0
-0.890625 -0.953125 0
-0.875 -0.953125 0
-0.890625 -0.9375 0
-0.875 -0.9375 0
-1 -0.9375 0
-0.984375 -0.9375 0
-1 -0.921875 0
-0.984375 -0.921875 0
-0.984375 -0.9375 0
-0.96875 -0.9375 0
-0.984375 -0.921875 0
-0.96875 -0.921875 0
-1 -0.921875 0
-0.984375 -0.921875 0
-1 -0.90625 0
-0.984375 -0.90625 0
-0.984375 -0.921875 0
-0.96875 -0.921875 0
-0.984375 -0.90625 0
-0.96875 -0.90625 0
-0.96875 -0.9375 0
-0.953125 -0.9375 0
-0.96875 -0.921875 0
-0.953125 -0.921875 0
-0.953125 -0.9375 0
-0.9375 -0.9375 0
-0.953125 -0.921875 0
-0.9375 -0.921875 0
-0.96875 -0.921875 0
-0.953125 -0.921875 0
-0.96875 -0.90625 0
-0.953125 -0.90625 0
-0.953125 -0.921875 0
-0.9375 -0.921875 0
-0.953125 -0.90625 0
-0.9375 -0.90625 0
-1 -0.90625 0
-0.984375 -0.90625 0
-1 -0.890625 0
-0.984375 -0.890625 0
-0.984375 -0.90625 0
-0.96875 -0.90625 0
-0.984375 -0.890625 0
-0.96875 -0.890625 0
-1 -0.890625 0
-0.984375 -0.890625 0
-1 -0.875 0
-0.984375 -0.875 0
-0.984375 -0.890625 0
-0.96875 -0.890625 0
-0.984375 -0.875 0
-0.96875 -0.875 0
-0.96875 -0.90625 0
-0.953125 -0.90625 0
-0.96875 -0.890625 0
-0.953125 -0.890625 0
-0.953125 -0.90625 0
-0.9375 -0.90625 0
-0.953125 -0.890625 0
-0.9375 -0.890625 0
-0.96875 -0.890625 0
-0.953125 -0.890625 0
-0.96875 -0.875 0
-0.953125 -0.875 0
-0.953125 -0.890625 0
-0.9375 -0.890625 0
-0.953125 -0.875 0
-0.9375 -0.875 0
-0.9375 -0.9375 0
-0.921875 -0.9375 0
-0.9375 -0.921875 0
-0.921875 -0.921875 0
-0.921875 -0.9375 0
-0.90625 -0.9375 0
-0.921875 -0.921875 0
-0.90625 -0.921875 0
-0.9375 -0.921875 0
-0.921875 -0.921875 0
-0.9375 -0.90625 0
-0.921875 -0.90625 0
-0.921875 -0.921875 0
-0.90625 -0.921875 0
-0.921875 -0.90625 0
-0.90625 -0.90625 0
-0.90625 -0.9375 0
-0.890625 -0.9375 0
-0.90625 -0.921875 0
-0.890625 -0.921875 0
-0.890625 -0.9375 0
-0.875 -0.9375 0
-0.890625 -0.921875 0
-0.875 -0.921875 0
-0.90625 -0.921875 0
-0.890625 -0.921875 0
-0.90625 -0.90625 0
-0.890625 -0.90625 0
-0.890625 -0.921875 0
-0.875 -0.921875 0
-0.890625 -0.90625 0
-0.875 -0.90625 0
-0.9375 -0.90625 0
-0.921875 -0.90625 0
-0.9375 -0.890625 0
-0.921875 -0.890625 0
-0.921875 -0.90625 0
-0.90625 -0.90625 0
-0.921875 -0.890625 0
-0.90625 -0.890625 0
-0.9375 -0.890625 0
-0.921875 -0.890625 0
-0.9375 -0.875 0
-0.921875 -0.875 0
-0.921875 -0.890625 0
-0.90625 -0.890625 0
-0.921875 -0.875 0
-0.90625 -0.875 0
-0.90625 -0.90625 0
-0.890625 -0.90625 0
-0.90625 -0.890625 0
-0.890625 -0.890625 0
-0.890625 -0.90625 0
-0.875 -0.90625 0
-0.890625 -0.890625 0
-0.875 -0.890625 0
-0.90625 -0.890625 0
-0.890625 -0.890625 0
-0.90625 -0.875 0
-0.890625 -0.875 0
-0.890625 -0.890625 0
-0.875 -0.890625 0
-0.890625 -0.875 0
-0.875 -0.875 0
-0.875 -1 0
-0.859375 -1 0
-0.875 -0.984375 0
-0.859375 -0.984375 0
-0.859375 -1 0
-0.84375 -1 0
-0.859375 -0.984375 0
-0.84375 -0.984375 0
-0.875 -0.984375 0
-0.859375 -0.984375 0
-0.875 -0.96875 0
-0.859375 -0.96875 0
-0.859375 -0.984375 0
-0.84375 -0.984375 0
-0.859375 -0.96875 0
-0.84375 -0.96875 0
-0.84375 -1 0
-0.828125 -1 0
-0.84375 -0.984375 0
-0.828125 -0.984375 0
-0.828125 -1 0
-0.8125 -1 0
-0.828125 -0.984375 0
-0.8125 -0.984375 0
-0.84375 -0.984375 0
-0.828125 -0.984375 0
-0.84375 -0.96875 0
-0.828125 -0.96875 0
-0.828125 -0.984375 0
-0.8125 -0.984375 0
-0.828125 -0.96875 0
-0.8125 -0.96875 0
-0.875 -0.96875 0
-0.859375 -0.96875 0
-0.875 -0.953125 0
-0.859375 -0.953125 0
-0.859375 -0.96875 0
-0.84375 -0.96875 0
-0.859375 -0.953125 0
-0.84375 -0.953125 0
-0.875 -0.953125 0
-0.859375 -0.953125 0
-0.875 -0.9375 0
-0.859375 -0.9375 0
-0.859375 -0.953125 0
-0.84375 -0.953125 0
-0.859375 -0.9375 0
-0.84375 -0.9375 0
-0.84375 -0.96875 0
-0.828125 -0.96875 0
-0.84375 -0.953125 0
-0.828125 -0.953125 0
-0.828125 -0.96875 0
-0.8125 -0.96875 0
-0.828125 -0.953125 0
-0.8125 -0.953125 0
-0.84375 -0.953125 0
-0.828125 -0.953125 0
-0.84375 -0.9375 0
-0.828125 -0.9375 0
-0.828125 -0.953125 0
-0.8125 -0.953125 0
-0.828125 -0.9375 0
-0.8125 -0.9375 0
-0.8125 -1 0
-0.796875 -1 0
-0.8125 -0.984375 0
-0.796875 -0.984375 0
-0.796875 -1 0
-0.78125 -1 0
-0.796875 -0.984375 0
-0.78125 -0.984375 0
-0.8125 -0.984375 0
-0.796875 -0.984375 0
-0.8125 -0.96875 0
-0.796875 -0.96875 0
-0.796875 -0.984375 0
-0.78125 -0.984375 0
-0.796875 -0.96875 0
-0.78125 -0.96875 0
-0.78125 -1 0
-0.765625 -1 0
-0.78125 -0.984375 0
-0.765625 -0.984375 0
-0.765625 -1 0
-0.75 -1 0
-0.765625 -0.984375 0
-0.75 -0.984375 0
-0.78125 -0.984375 0
-0.765625 -0.984375 0
-0.78125 -0.96875 0
-0.765625 -0.96875 0
-0.765625 -0.984375 0
-0.75 -0.984375 0
-0.765625 -0.96875 0
-0.75 -0.96875 0
-0.8125 -0.96875 0
-0.796875 -0.96875 0
-0.8125 -0.953125 0
-0.796875 -0.953125 0
-0.796875 -0.96875 0
-0.78125 -0.96875 0
-0.796875 -0.953125 0
-0.78125 -0.953125 0
-0.8125 -0.953125 0
-0.796875 -0.953125 0
-0.8125 -0.9375 0
-0.796875 -0.9375 0
-0.796875 -0.953125 0
-0.78125 -0.953125 0
-0.796875 -0.9375 0
-0.78125 -0.9375 0
-0.78125 -0.96875 0
-0.765625 -0.96875 0
-0.78125 -0.953125 0
-0.765625 -0.953125 0
-0.765625 -0.96875 0
-0.75 -0.96875 0
-0.765625 -0.953125 0
-0.75 -0.953125 0
-0.78125 -0.953125 0
-0.765625 -0.953125 0
-0.78125 -0.9375 0
-0.765625 -0.9375 0
-0.765625 -0.953125 0
-0.75 -0.953125 0
-0.765625 -0.9375 0
-0.75 -0.9375 0
-0.875 -0.9375 0
-0.859375 -0.9375 0
-0.875 -0.921875 0
-0.859375 -0.921875 0
-0.859375 -0.9375 0
-0.84375 -0.9375 0
-0.859375 -0.921875 0
-0.84375 -0.921875 0
-0.875 -0.921875 0
-0.859375 -0.921875 0
-0.875 -0.90625 0
-0.859375 -0.90625 0
-0.859375 -0.921875 0
-0.84375 -0.921875 0
-0.859375 -0.90625 0
-0.84375 -0.90625 0
-0.84375 -0.9375 0
-0.828125 -0.9375 0
-0.84375 -0.921875 0
-0.828125 -0.921875 0
-0.828125 -0.9375 0
-0.8125 -0.9375 0
-0.828125 -0.921875 0
-0.8125 -0.921875 0
-0.84375 -0.921875 0
-0.828125 -0.921875 0
-0.84375 -0.90625 0
-0.828125 -0.90625 0
-0.828125 -0.921875 0
-0.8125 -0.921875 0
-0.828125 -0.90625 0
-0.8125 -0.90625 0
-0.875 -0.90625 0
-0.859375 -0.90625 0
-0.875 -0.890625 0
-0.859375 -0.890625 0
-0.859375 -0.90625 0
-0.84375 -0.90625 0
-0.859375 -0.890625 0
-0.84375 -0.890625 0
-0.875 -0.890625 0
-0.859375 -0.890625 0
-0.875 -0.875 0
-0.859375 -0.875 0
-0.859375 -0.890625 0
-0.84375 -0.890625 0
-0.859375 -0.875 0
-0.84375 -0.875 0
-0.84375 -0.90625 0
-0.828125 -0.90625 0
-0.84375 -0.890625 0
-0.828125 -0.890625 0
-0.828125 -0.90625 0
-0.8125 -0.90625 0
-0.828125 -0.890625 0
-0.8125 -0.890625 0
-0.84375 -0.890625 0
-0.828125 -0.890625 0
-0.84375 -0.875 0
-0.828125 -0.875 0
-0.828125 -0.890625 0
-0.8125 -0.890625 0
-0.828125 -0.875 0
-0.8125 -0.875 0
-0.8125 -0.9375 0
-0.796875 -0.9375 0
-0.8125 -0.921875 0
-0.796875 -0.921875 0
-0.796875 -0.9375 0
-0.78125 -0.9375 0
-0.796875 -0.921875 0
-0.78125 -0.921875 0
-0.8125 -0.921875 0
-0.796875 -0.921875 0
-0.8125 -0.90625 0
-0.796875 -0.90625 0
-0.796875 -0.921875 0
-0.78125 -0.921875 0
-0.796875 -0.90625 0
-0.78125 -0.90625 0
-0.78125 -0.9375 0
-0.765625 -0.9375 0
-0.78125 -0.921875 0
-0.765625 -0.921875 0
-0.765625 -0.9375 0
-0.75 -0.9375 0
-0.765625 -0.921875 0
-0.75 -0.921875 0
-0.78125 -0.921875 0
-0.765625 -0.921875 0
-0.78125 -0.90625 0
-0.765625 -0.90625 0
-0.765625 -0.921875 0
-0.75 -0.921875 0
-0.765625 -0.90625 0
-0.75 -0.90625 0
-0.8125 -0.90625 0
-0.796875 -0.90625 0
-0.8125 -0.890625 0
-0.796875 -0.890625 0
-0.796875 -0.90625 0
[...]
  <PointData Scalars="scalars">
    <DataArray type="Float32" Name="U" format="ascii">
0 0 0 -2.76778e-07 0 0 -2.76778e-07 1.26472e-06 0 -2.76778e-07 0 -1.50324e-05 -2.76778e-07 1.26472e-06 -1.50324e-05 -3.02339e-05 0 0 1.26472e-06 6.62377e-06 0 0 6.62377e-06 1.78359e-05 1.26472e-06 6.62377e-06 -3.02339e-05 -4.61453e-05 6.62377e-06 1.78359e-05 -4.61453e-05 -6.35838e-05 0 -1.50324e-05 0 -3.81328e-05 -1.50324e-05 -3.02339e-05 -3.81328e-05 -7.55338e-05 0 -3.81328e-05 0 -4.56973e-05 -3.81328e-05 -7.55338e-05 -4.56973e-05 -9.36093e-05 -3.02339e-05 -4.61453e-05 -7.55338e-05 -0.000111213 -4.61453e-05 -6.35838e-05 -0.000111213 -0.000144066 -7.55338e-05 -0.000111213 -9.36093e-05 -0.000145691 -0.000111213 -0.000144066 -0.000145691 -0.000203239 0 0 1.78359e-05 3.61172e-05 0 0 3.61172e-05 6.00788e-05 1.78359e-05 3.61172e-05 -6.35838e-05 -8.25619e-05 3.61172e-05 6.00788e-05 -8.25619e-05 -0.000100004 0 0 6.00788e-05 8.36358e-05 0 0 8.36358e-05 9.58616e-05 6.00788e-05 8.36358e-05 -0.000100004 -0.000107305 8.36358e-05 9.58616e-05 -0.000107305 -9.0931e-05 -6.35838e-05 -8.25619e-05 -0.000144066 -0.00017375 -8.25619e-05 -0.000100004 -0.00017375 -0.000202228 -0.000144066 -0.00017375 -0.000203239 -0.000266473 -0.00017375 -0.000202228 -0.000266473 -0.000334729 -0.000100004 -0.000107305 -0.000202228 -0.000234797 -0.000107305 -9.0931e-05 -0.000234797 -0.000278215 -0.000202228 -0.000234797 -0.000334729 -0.000408346 -0.000234797 -0.000278215 -0.000408346 -0.000492606 0 -4.56973e-05 0 -6.32093e-05 -4.56973e-05 -9.36093e-05 -6.32093e-05 -0.000127952 0 -6.32093e-05 0 -0.000114146 -6.32093e-05 -0.000127952 -0.000114146 -0.00022689 -9.36093e-05 -0.000145691 -0.000127952 -0.000196719 -0.000145691 -0.000203239 -0.000196719 -0.000273697 -0.000127952 -0.000196719 -0.00022689 -0.000335604 -0.000196719 -0.000273697 -0.000335604 -0.000435665 0 -0.000114146 0 -0.00010202 -0.000114146 -0.00022689 -0.00010202 -0.000203929 0 -0.00010202 0 -9.8449e-05 -0.00010202 -0.000203929 -9.8449e-05 -0.000196009 -0.00022689 -0.000335604 -0.000203929 -0.000306344 -0.000335604 -0.000435665 -0.000306344 -0.000410854 -0.000203929 -0.000306344 -0.000196009 -0.000291873 -0.000306344 -0.000410854 -0.000291873 -0.00038583 -0.000203239 -0.000266473 -0.000273697 -0.000364632 -0.000266473 -0.000334729 -0.000364632 -0.000474675 -0.000273697 -0.000364632 -0.000435665 -0.000521037 -0.000364632 -0.000474675 -0.000521037 -0.000587372 -0.000334729 -0.000408346 -0.000474675 -0.0006034 -0.000408346 -0.000492606 -0.0006034 -0.000738838 -0.000474675 -0.0006034 -0.000587372 -0.000637757 -0.0006034 -0.000738838 -0.000637757 -0.000687721 -0.000435665 -0.000521037 -0.000410854 -0.000519051 -0.000521037 -0.000587372 -0.000519051 -0.000629876 -0.000410854 -0.000519051 -0.00038583 -0.000479461 -0.000519051 -0.000629876 -0.000479461 -0.00057741 -0.000587372 -0.000637757 -0.000629876 -0.000736218 -0.000637757 -0.000687721 -0.000736218 -0.000824657 -0.000629876 -0.000736218 -0.00057741 -0.000686564 -0.000736218 -0.000824657 -0.000686564 -0.000809858 0 0 9.58616e-05 8.61412e-05 0 0 8.61412e-05 5.54697e-05 9.58616e-05 8.61412e-05 -9.0931e-05 -4.02837e-05 8.61412e-05 5.54697e-05 -4.02837e-05 3.73553e-05 0 0 5.54697e-05 2.64731e-05 0 0 2.64731e-05 3.62201e-05 5.54697e-05 2.64731e-05 3.73553e-05 0.000106373 2.64731e-05 3.62201e-05 0.000106373 0.000117219 -9.0931e-05 -4.02837e-05 -0.000278215 -0.000334227 -4.02837e-05 3.73553e-05 -0.000334227 -0.000391867 -0.000278215 -0.000334227 -0.000492606 -0.000600912 -0.000334227 -0.000391867 -0.000600912 -0.000749857 3.73553e-05 0.000106373 -0.000391867 -0.000429431 0.000106373 0.000117219 -0.000429431 -0.000435546 -0.000391867 -0.000429431 -0.000749857 -0.000940144 -0.000429431 -0.000435546 -0.000940144 -0.00113359 0 0 3.62201e-05 0.000102867 0 0 0.000102867 0.000189186 3.62201e-05 0.000102867 0.000117219 5.1107e-05 0.000102867 0.000189186 5.1107e-05 -4.33357e-05 0 0 0.000189186 0.000215416 0 0 0.000215416 0.000140508 0.000189186 0.000215416 -4.33357e-05 -8.4955e-05 0.000215416 0.000140508 -8.4955e-05 -6.46962e-05 0.000117219 5.1107e-05 -0.000435546 -0.000436641 5.1107e-05 -4.33357e-05 -0.000436641 -0.00049046 -0.000435546 -0.000436641 -0.00113359 -0.00126037 -0.000436641 -0.00049046 -0.00126037 -0.00128276 -4.33357e-05 -8.4955e-05 -0.00049046 -0.000623864 -8.4955e-05 -6.46962e-05 -0.000623864 -0.00077827 -0.00049046 -0.000623864 -0.00128276 -0.00126805 -0.000623864 -0.00077827 -0.00126805 -0.00134962 -0.000492606 -0.000600912 -0.000738838 -0.000857333 -0.000600912 -0.000749857 -0.000857333 -0.000938428 -0.000738838 -0.000857333 -0.000687721 -0.000761644 -0.000857333 -0.000938428 -0.000761644 -0.000874101 -0.000749857 -0.000940144 -0.000938428 -0.000993667 -0.000940144 -0.00113359 -0.000993667 -0.00108249 -0.000938428 -0.000993667 -0.000874101 -0.00100519 -0.000993667 -0.00108249 -0.00100519 -0.00110127 -0.000687721 -0.000761644 -0.000824657 -0.00088341 -0.000761644 -0.000874101 -0.00088341 -0.000917351 -0.000824657 -0.00088341 -0.000809858 -0.00093498 -0.00088341 -0.000917351 -0.00093498 -0.00102881 -0.000874101 -0.00100519 -0.000917351 -0.000953745 -0.00100519 -0.00110127 -0.000953745 -0.0010168 -0.000917351 -0.000953745 -0.00102881 -0.0010581 -0.000953745 -0.0010168 -0.0010581 -0.00103919 -0.00113359 -0.00126037 -0.00108249 -0.00127328 -0.00126037 -0.00128276 -0.00127328 -0.00155183 -0.00108249 -0.00127328 -0.00110127 -0.00112676 -0.00127328 -0.00155183 -0.00112676 -0.00112893 -0.00128276 -0.00126805 -0.00155183 -0.00177675 -0.00126805 -0.00134962 -0.00177675 -0.00179797 -0.00155183 -0.00177675 -0.00112893 -0.00121391 -0.00177675 -0.00179797 -0.00121391 -0.00140881 -0.00110127 -0.00112676 -0.0010168 -0.00108194 -0.00112676 -0.00112893 -0.00108194 -0.00107991 -0.0010168 -0.00108194 -0.00103919 -0.00106569 -0.00108194 -0.00107991 -0.00106569 -0.00123104 -0.00112893 -0.00121391 -0.00107991 -0.00100273 -0.00121391 -0.00140881 -0.00100273 -0.000998199 -0.00107991 -0.00100273 -0.00123104 -0.00147083 -0.00100273 -0.000998199 -0.00147083 -0.00154573 0 -9.8449e-05 0 -0.000102161 -9.8449e-05 -0.000196009 -0.000102161 -0.00020585 0 -0.000102161 0 -8.76983e-05 -0.000102161 -0.00020585 -8.76983e-05 -0.00017442 -0.000196009 -0.000291873 -0.00020585 -0.000311595 -0.000291873 -0.00038583 -0.000311595 -0.000417568 -0.00020585 -0.000311595 -0.00017442 -0.000260839 -0.000311595 -0.000417568 -0.000260839 -0.000351211 0 -8.76983e-05 0 -0.000156272 -8.76983e-05 -0.00017442 -0.000156272 -0.000314531 0 -0.000156272 0 -0.000218417 -0.000156272 -0.000314531 -0.000218417 -0.000439041 -0.00017442 -0.000260839 -0.000314531 -0.000475437 -0.000260839 -0.000351211 -0.000475437 -0.000636884 -0.000314531 -0.000475437 -0.000439041 -0.000664807 -0.000475437 -0.000636884 -0.000664807 -0.000899826 -0.00038583 -0.000479461 -0.000417568 -0.00051821 -0.000479461 -0.00057741 -0.00051821 -0.000604393 -0.000417568 -0.00051821 -0.000351211 -0.000454652 -0.00051821 -0.000604393 -0.000454652 -0.000584004 -0.00057741 -0.000686564 -0.000604393 -0.000668322 -0.000686564 -0.000809858 -0.000668322 -0.000714914 -0.000604393 -0.000668322 -0.000584004 -0.000748681 -0.000668322 -0.000714914 -0.000748681 -0.000942305 -0.000351211 -0.000454652 -0.000636884 -0.000793703 -0.000454652 -0.000584004 -0.000793703 -0.000939693 -0.000636884 -0.000793703 -0.000899826 -0.00114868 -0.000793703 -0.000939693 -0.00114868 -0.00141371 -0.000584004 -0.000748681 -0.000939693 -0.00107481 -0.000748681 -0.000942305 -0.00107481 -0.00121341 -0.000939693 -0.00107481 -0.00141371 -0.00169046 -0.00107481 -0.00121341 -0.00169046 -0.00196724 0 -0.000218417 0 -0.000293961 -0.000218417 -0.000439041 -0.000293961 -0.000590719 0 -0.000293961 0 -0.000389502 -0.000293961 -0.000590719 -0.000389502 -0.000783873 -0.000439041 -0.000664807 -0.000590719 -0.000892774 -0.000664807 -0.000899826 -0.000892774 -0.00120333 -0.000590719 -0.000892774 -0.000783873 -0.00118838 -0.000892774 -0.00120333 -0.00118838 -0.0016062 0 -0.000389502 0 -0.000480649 -0.000389502 -0.000783873 -0.000480649 -0.000958817 0 -0.000480649 0 -0.000538672 -0.000480649 -0.000958817 -0.000538672 -0.00108361 -0.000783873 -0.00118838 -0.000958817 -0.00143165 -0.00118838 -0.0016062 -0.00143165 -0.0018989 -0.000958817 -0.00143165 -0.00108361 -0.00163999 -0.00143165 -0.0018989 -0.00163999 -0.00221197 -0.000899826 -0.00114868 -0.00120333 -0.00152737 -0.00114868 -0.00141371 -0.00152737 -0.00187597 -0.00120333 -0.00152737 -0.0016062 -0.00203799 -0.00152737 -0.00187597 -0.00203799 -0.00247484 -0.00141371 -0.00169046 -0.00187597 -0.00226663 -0.00169046 -0.00196724 -0.00226663 -0.002718 -0.00187597 -0.00226663 -0.00247484 -0.00290265 -0.00226663 -0.002718 -0.00290265 -0.00330689 -0.0016062 -0.00203799 -0.0018989 -0.00236305 -0.00203799 -0.00247484 -0.00236305 -0.00283713 -0.0018989 -0.00236305 -0.00221197 -0.002798 -0.00236305 -0.00283713 -0.002798 -0.0033918 -0.00247484 -0.00290265 -0.00283713 -0.00333703 -0.00290265 -0.00330689 -0.00333703 -0.00387964 -0.00283713 -0.00333703 -0.0033918 -0.00398421 -0.00333703 -0.00387964 -0.00398421 -0.00457419 -0.000809858 -0.00093498 -0.000714914 -0.000774151 -0.00093498 -0.00102881 -0.000774151 -0.000896312 -0.000714914 -0.000774151 -0.000942305 -0.0011334 -0.000774151 -0.000896312 -0.0011334 -0.00127876 -0.00102881 -0.0010581 -0.000896312 -0.00111199 -0.0010581 -0.00103919 -0.00111199 -0.00137461 -0.000896312 -0.00111199 -0.00127876 -0.00136632 -0.00111199 -0.00137461 -0.00136632 -0.00145472 -0.000942305 -0.0011334 -0.00121341 -0.00138552 -0.0011334 -0.00127876 -0.00138552 -0.00161661 -0.00121341 -0.00138552 -0.00196724 -0.00223577 -0.00138552 -0.00161661 -0.00223577 -0.00251642 -0.00127876 -0.00136632 -0.00161661 -0.00189792 -0.00136632 -0.00145472 -0.00189792 -0.00218608 -0.00161661 -0.00189792 -0.00251642 -0.00286688 -0.00189792 -0.00218608 -0.00286688 -0.00333823 -0.00103919 -0.00106569 -0.00137461 -0.00156016 -0.00106569 -0.00123104 -0.00156016 -0.00158608 -0.00137461 -0.00156016 -0.00145472 -0.00163994 -0.00156016 -0.00158608 -0.00163994 -0.00194529 -0.00123104 -0.00147083 -0.00158608 -0.00155116 -0.00147083 -0.00154573 -0.00155116 -0.00166645 -0.00158608 -0.00155116 -0.00194529 -0.00227792 -0.00155116 -0.00166645 -0.00227792 -0.00258317 -0.00145472 -0.00163994 -0.00218608 -0.00247212 -0.00163994 -0.00194529 -0.00247212 -0.00284431 -0.00218608 -0.00247212 -0.00333823 -0.00388006 -0.00247212 -0.00284431 -0.00388006 -0.00433679 -0.00194529 -0.00227792 -0.00284431 -0.00340066 -0.00227792 -0.00258317 -0.00340066 -0.00403723 -0.00284431 -0.00340066 -0.00433679 -0.00462977 -0.00340066 -0.00403723 -0.00462977 -0.0049567 -0.00196724 -0.00223577 -0.002718 -0.00322745 -0.00223577 -0.00251642 -0.00322745 -0.00374811 -0.002718 -0.00322745 -0.00330689 -0.00370247 -0.00322745 -0.00374811 -0.00370247 -0.00414233 -0.00251642 -0.00286688 -0.00374811 -0.00419838 -0.00286688 -0.00333823 -0.00419838 -0.00453759 -0.00374811 -0.00419838 -0.00414233 -0.00470001 -0.00419838 -0.00453759 -0.00470001 -0.00538264 -0.00330689 -0.00370247 -0.00387964 -0.00445247 -0.00370247 -0.00414233 -0.00445247 -0.00502731 -0.00387964 -0.00445247 -0.00457419 -0.00518167 -0.00445247 -0.00502731 -0.00518167 -0.0058252 -0.00414233 -0.00470001 -0.00502731 -0.00557635 -0.00470001 -0.00538264 -0.00557635 -0.00615343 -0.00502731 -0.00557635 -0.0058252 -0.0064946 -0.00557635 -0.00615343 -0.0064946 -0.00709821 -0.00333823 -0.00388006 -0.00453759 -0.0048551 -0.00388006 -0.00433679 -0.0048551 -0.00531869 -0.00453759 -0.0048551 -0.00538264 -0.00609581 -0.0048551 -0.00531869 -0.00609581 -0.00673601 -0.00433679 -0.00462977 -0.00531869 -0.0059723 -0.00462977 -0.0049567 -0.0059723 -0.00663758 -0.00531869 -0.0059723 -0.00673601 -0.0073537 -0.0059723 -0.00663758 -0.0073537 -0.00807977 -0.00538264 -0.00609581 -0.00615343 -0.00683945 -0.00609581 -0.00673601 -0.00683945 -0.00764087 -0.00615343 -0.00683945 -0.00709821 -0.00758735 -0.00683945 -0.00764087 -0.00758735 -0.00803441 -0.00673601 -0.0073537 -0.00764087 -0.0083842 -0.0073537 -0.00807977 -0.0083842 -0.00898458 -0.00764087 -0.0083842 -0.00803441 -0.00867589 -0.0083842 -0.00898458 -0.00867589 -0.00950206 0 0 0.000140508 3.00649e-05 0 0 3.00649e-05 -8.99091e-06 0.000140508 3.00649e-05 -6.46962e-05 -9.50263e-05 3.00649e-05 -8.99091e-06 -9.50263e-05 -0.000289725 0 0 -8.99091e-06 7.83822e-06 0 0 7.83822e-06 -9.06272e-05 -8.99091e-06 7.83822e-06 -0.000289725 -0.000595891 7.83822e-06 -9.06272e-05 -0.000595891 -0.000847231 -6.46962e-05 -9.50263e-05 -0.00077827 -0.000869882 -9.50263e-05 -0.000289725 -0.000869882 -0.00092929 -0.00077827 -0.000869882 -0.00134962 -0.00154569 -0.000869882 -0.00092929 -0.00154569 -0.00165752 -0.000289725 -0.000595891 -0.00092929 -0.00108884 -0.000595891 -0.000847231 -0.00108884 -0.00134184 -0.00092929 -0.00108884 -0.00165752 -0.00150064 -0.00108884 -0.00134184 -0.00150064 -0.00124444 0 0 -9.06272e-05 -0.000423981 0 0 -0.000423981 -0.000873839 -9.06272e-05 -0.000423981 -0.000847231 -0.00100608 -0.000423981 -0.000873839 -0.00100608 -0.00120003 0 0 -0.000873839 -0.00120495 0 0 -0.00120495 -0.0013249 -0.000873839 -0.00120495 -0.00120003 -0.0014767 -0.00120495 -0.0013249 -0.0014767 -0.00174483 -0.000847231 -0.00100608 -0.00134184 -0.00145488 -0.00100608 -0.00120003 -0.00145488 -0.0013326 -0.00134184 -0.00145488 -0.00124444 -0.0012652 -0.00145488 -0.0013326 -0.0012652 -0.00155778 -0.00120003 -0.0014767 -0.0013326 -0.0012918 -0.0014767 -0.00174483 -0.0012918 -0.00159117 -0.0013326 -0.0012918 -0.00155778 -0.00166036 -0.0012918 -0.00159117 -0.00166036 -0.00138604 -0.00134962 -0.00154569 -0.00179797 -0.001659 -0.00154569 -0.00165752 -0.001659 -0.00158774 -0.00179797 -0.001659 -0.00140881 -0.00159036 -0.001659 -0.00158774 -0.00159036 -0.00165983 -0.00165752 -0.00150064 -0.00158774 -0.00168649 -0.00150064 -0.00124444 -0.00168649 -0.00175858 -0.00158774 -0.00168649 -0.00165983 -0.00173394 -0.00168649 -0.00175858 -0.00173394 -0.00192722 -0.00140881 -0.00159036 -0.000998199 -0.00122956 -0.00159036 -0.00165983 -0.00122956 -0.00157197 -0.000998199 -0.00122956 -0.00154573 -0.00133279 -0.00122956 -0.00157197 -0.00133279 -0.00110741 -0.00165983 -0.00173394 -0.00157197 -0.00166372 -0.00173394 -0.00192722 -0.00166372 -0.00147908 -0.00157197 -0.00166372 -0.00110741 -0.00126621 -0.00166372 -0.00147908 -0.00126621 -0.00173457 -0.00124444 -0.0012652 -0.00175858 -0.00163327 -0.0012652 -0.00155778 -0.00163327 -0.00147429 -0.00175858 -0.00163327 -0.00192722 -0.00199724 -0.00163327 -0.00147429 -0.00199724 -0.00167455 -0.00155778 -0.00166036 -0.00147429 -0.00144641 -0.00166036 -0.00138604 -0.00144641 -0.00137738 -0.00147429 -0.00144641 -0.00167455 -0.00133248 -0.00144641 -0.00137738 -0.00133248 -0.00152917 -0.00192722 -0.00199724 -0.00147908 -0.0015329 -0.00199724 -0.00167455 -0.0015329 -0.00205982 -0.00147908 -0.0015329 -0.00173457 -0.00208782 -0.0015329 -0.00205982 -0.00208782 -0.00233217 -0.00167455 -0.00133248 -0.00205982 -0.00245367 -0.00133248 -0.00152917 -0.00245367 -0.00227692 -0.00205982 -0.00245367 -0.00233217 -0.00283979 -0.00245367 -0.00227692 -0.00283979 -0.00347231 0 0 -0.0013249 -0.00133706 0 0 -0.00133706 -0.00139436 -0.0013249 -0.00133706 -0.00174483 -0.00198167 -0.00133706 -0.00139436 -0.00198167 -0.00217049 0 0 -0.00139436 -0.00149532 0 0 -0.00149532 -0.00135101 -0.00139436 -0.00149532 -0.00217049 -0.00212459 -0.00149532 -0.00135101 -0.00212459 -0.00184486 -0.00174483 -0.00198167 -0.00159117 -0.00190936 -0.00198167 -0.00217049 -0.00190936 -0.00186458 -0.00159117 -0.00190936 -0.00138604 -0.00115619 -0.00190936 -0.00186458 -0.00115619 -0.00130555 -0.00217049 -0.00212459 -0.00186458 -0.00175107 -0.00212459 -0.00184486 -0.00175107 -0.00200818 -0.00186458 -0.00175107 -0.00130555 -0.00160844 -0.00175107 -0.00200818 -0.00160844 -0.0017245 0 0 -0.00135101 -0.000756009 0 0 -0.000756009 -0.000227164 -0.00135101 -0.000756009 -0.00184486 -0.00168689 -0.000756009 -0.000227164 -0.00168689 -0.00160234 0 0 -0.000227164 -0.000423196 0 0 -0.000423196 -0.000741776 -0.000227164 -0.000423196 -0.00160234 -0.00106588 -0.000423196 -0.000741776 -0.00106588 -0.000261703 -0.00184486 -0.00168689 -0.00200818 -0.00234273 -0.00168689 -0.00160234 -0.00234273 -0.00213898 -0.00200818 -0.00234273 -0.0017245 -0.00159784 -0.00234273 -0.00213898 -0.00159784 -0.00148464 -0.00160234 -0.00106588 -0.00213898 -0.00136576 -0.00106588 -0.000261703 -0.00136576 -0.000631344 -0.00213898 -0.00136576 -0.00148464 -0.00175352 -0.00136576 -0.000631344 -0.00175352 -0.00217961 -0.00138604 -0.00115619 -0.00137738 -0.00120423 -0.00115619 -0.00130555 -0.00120423 -0.00121817 -0.00137738 -0.00120423 -0.00152917 -0.00187867 -0.00120423 -0.00121817 -0.00187867 -0.0016218 -0.00130555 -0.00160844 -0.00121817 -0.00134556 -0.00160844 -0.0017245 -0.00134556 -0.00115998 -0.00121817 -0.00134556 -0.0016218 -0.00120761 -0.00134556 -0.00115998 -0.00120761 -0.00158035 -0.00152917 -0.00187867 -0.00227692 -0.00214165 -0.00187867 -0.0016218 -0.00214165 -0.0025766 -0.00227692 -0.00214165 -0.00347231 -0.00388956 -0.00214165 -0.0025766 -0.00388956 -0.00452907 -0.0016218 -0.00120761 -0.0025766 -0.00313711 -0.00120761 -0.00158035 -0.00313711 -0.00361841 -0.0025766 -0.00313711 -0.00452907 -0.00564288 -0.00313711 -0.00361841 -0.00564288 -0.0063401 -0.0017245 -0.00159784 -0.00115998 -0.000992948 -0.00159784 -0.00148464 -0.000992948 -0.00154823 -0.00115998 -0.000992948 -0.00158035 -0.00242178 -0.000992948 -0.00154823 -0.00242178 -0.00298516 -0.00148464 -0.00175352 -0.00154823 -0.00253719 -0.00175352 -0.00217961 -0.00253719 -0.00330812 -0.00154823 -0.00253719 -0.00298516 -0.00349233 -0.00253719 -0.00330812 -0.00349233 -0.00441626 -0.00158035 -0.00242178 -0.00361841 -0.00435955 -0.00242178 -0.00298516 -0.00435955 -0.00508952 -0.00361841 -0.00435955 -0.0063401 -0.00652705 -0.00435955 -0.00508952 -0.00652705 -0.0073806 -0.00298516 -0.00349233 -0.00508952 -0.00562139 -0.00349233 -0.00441626 -0.00562139 -0.00656424 -0.00508952 -0.00562139 -0.0073806 -0.00876518 -0.00562139 -0.00656424 -0.00876518 -0.009739 -0.00154573 -0.00133279 -0.00166645 -0.00196615 -0.00133279 -0.00110741 -0.00196615 -0.00223259 -0.00166645 -0.00196615 -0.00258317 -0.0029959 -0.00196615 -0.00223259 -0.0029959 -0.00361863 -0.00110741 -0.00126621 -0.00223259 -0.00237595 -0.00126621 -0.00173457 -0.00237595 -0.00264284 -0.00223259 -0.00237595 -0.00361863 -0.0041895 -0.00237595 -0.00264284 -0.0041895 -0.00440993 -0.00258317 -0.0029959 -0.00403723 -0.00448656 -0.0029959 -0.00361863 -0.00448656 -0.0047545 -0.00403723 -0.00448656 -0.0049567 -0.0055893 -0.00448656 -0.0047545 -0.0055893 -0.00644153 -0.00361863 -0.0041895 -0.0047545 -0.00527802 -0.0041895 -0.00440993 -0.00527802 -0.00625916 -0.0047545 -0.00527802 -0.00644153 -0.00716787 -0.00527802 -0.00625916 -0.00716787 -0.00780461 -0.00173457 -0.00208782 -0.00264284 -0.00311341 -0.00208782 -0.00233217 -0.00311341 -0.00346015 -0.00264284 -0.00311341 -0.00440993 -0.00462828 -0.00311341 -0.00346015 -0.00462828 -0.00539724 -0.00233217 -0.00283979 -0.00346015 -0.00376836 -0.00283979 -0.00347231 -0.00376836 -0.00472484 -0.00346015 -0.00376836 -0.00539724 -0.00636946 -0.00376836 -0.00472484 -0.00636946 -0.00687427 -0.00440993 -0.00462828 -0.00625916 -0.00720112 -0.00462828 -0.00539724 -0.00720112 -0.00776774 -0.00625916 -0.00720112 -0.00780461 -0.00867687 -0.00720112 -0.00776774 -0.00867687 -0.00959714 -0.00539724 -0.00636946 -0.00776774 -0.00837037 -0.00636946 -0.00687427 -0.00837037 -0.00916598 -0.00776774 -0.00837037 -0.00959714 -0.0102652 -0.00837037 -0.00916598 -0.0102652 -0.0111152 -0.0049567 -0.0055893 -0.00663758 -0.0072111 -0.0055893 -0.00644153 -0.0072111 -0.0078664 -0.00663758 -0.0072111 -0.00807977 -0.00882067 -0.0072111 -0.0078664 -0.00882067 -0.0093644 -0.00644153 -0.00716787 -0.0078664 -0.00870507 -0.00716787 -0.00780461 -0.00870507 -0.00941856 -0.0078664 -0.00870507 -0.0093644 -0.00984837 -0.00870507 -0.00941856 -0.00984837 -0.0107026 -0.00807977 -0.00882067 -0.00898458 -0.00964115 -0.00882067 -0.0093644 -0.00964115 -0.0105333 -0.00898458 -0.00964115 -0.00950206 -0.0103043 -0.00964115 -0.0105333 -0.0103043 -0.0109655 -0.0093