<?xml version="1.0" ?> 
<!-- 
# vtk DataFile Version 3.0
#This file was generated by the deal.II library on 21:44:36 at 2021/4/29
-->
<VTKFile type="UnstructuredGrid" version="0.1" byte_order="LittleEndian">
<UnstructuredGrid>
<Piece NumberOfPoints="65536" NumberOfCells="16384" >
  <Points>
    <DataArray type="Float32" NumberOfComponents="3" format="ascii">
-1 -1 0
-0.984375 -1 0
-1 -0.984375 0
-0.984375 -0.984375 0
-0.984375 -1 0
-0.96875 -1 0
-0.984375 -0.984375 0
-0.96875 -0.984375 0
-1 -0.984375 0
-0.984375 -0.984375 0
-1 -0.96875 0
-0.984375 -0.96875 0
-0.984375 -0.984375 0
-0.96875 -0.984375 0
-0.984375 -0.96875 0
-0.96875 -0.96875 0
-0.96875 -1 0
-0.953125 -1 0
-0.96875 -0.984375 0
-0.953125 -0.984375 0
-0.953125 -1 0
-0.9375 -1 0
-0.953125 -0.984375 0
-0.9375 -0.984375 0
-0.96875 -0.984375 0
-0.953125 -0.984375 0
-0.96875 -0.96875 0
-0.953125 -0.96875 0
-0.953125 -0.984375 0
-0.9375 -0.984375 0
-0.953125 -0.96875 0
-0.9375 -0.96875 0
-1 -0.96875 0
-0.984375 -0.96875 0
-1 -0.953125 0
-0.984375 -0.953125 0
-0.984375 -0.96875 0
-0.96875 -0.96875 0
-0.984375 -0.953125 0
-0.96875 -0.953125 0
-1 -0.953125 0
-0.984375 -0.953125 0
-1 -0.9375 0
-0.984375 -0.9375 0
-0.984375 -0.953125 0
-0.96875 -0.953125 0
-0.984375 -0.9375 0
-0.96875 -0.9375 0
-0.96875 -0.96875 0
-0.953125 -0.96875 0
-0.96875 -0.953125 0
-0.953125 -0.953125 0
-0.953125 -0.96875 0
-0.9375 -0.96875 0
-0.953125 -0.953125 0
-0.9375 -0.953125 0
-0.96875 -0.953125 0
-0.953125 -0.953125 0
-0.96875 -0.9375 0
-0.953125 -0.9375 0
-0.953125 -0.953125 0
-0.9375 -0.953125 0
-0.953125 -0.9375 0
-0.9375 -0.9375 0
-0.9375 -1 0
-0.921875 -1 0
-0.9375 -0.984375 0
-0.921875 -0.984375 0
-0.921875 -1 0
-0.90625 -1 0
-0.921875 -0.984375 0
-0.90625 -0.984375 0
-0.9375 -0.984375 0
-0.921875 -0.984375 0
-0.9375 -0.96875 0
-0.921875 -0.96875 0
-0.921875 -0.984375 0
-0.90625 -0.984375 0
-0.921875 -0.96875 0
-0.90625 -0.96875 0
-0.90625 -1 0
-0.890625 -1 0
-0.90625 -0.984375 0
-0.890625 -0.984375 0
-0.890625 -1 0
-0.875 -1 0
-0.890625 -0.984375 0
-0.875 -0.984375 0
-0.90625 -0.984375 0
-0.890625 -0.984375 0
-0.90625 -0.96875 0
-0.890625 -0.96875 0
-0.890625 -0.984375 0
-0.875 -0.984375 0
-0.890625 -0.96875 0
-0.875 -0.96875 0
-0.9375 -0.96875 0
-0.921875 -0.96875 0
-0.9375 -0.953125 0
-0.921875 -0.953125 0
-0.921875 -0.96875 0
-0.90625 -0.96875 0
-0.921875 -0.953125 0
-0.90625 -0.953125 0
-0.9375 -0.953125 0
-0.921875 -0.953125 0
-0.9375 -0.9375 0
-0.921875 -0.9375 0
-0.921875 -0.953125 0
-0.90625 -0.953125 0
-0.921875 -0.9375 0
-0.90625 -0.9375 0
-0.90625 -0.96875 0
-0.890625 -0.96875 0
-0.90625 -0.953125 0
-0.890625 -0.953125 0
-0.890625 -0.96875 0
-0.875 -0.96875 0
-0.890625 -0.953125 0
-0.875 -0.953125 0
-0.90625 -0.953125 0
-0.890625 -0.953125 0
-0.90625 -0.9375 0
-0.890625 -0.9375 0
-0.890625 -0.953125 0
-0.875 -0.953125 0
-0.890625 -0.9375 0
-0.875 -0.9375 0
-1 -0.9375 0
-0.984375 -0.9375 0
-1 -0.921875 0
-0.984375 -0.921875 0
-0.984375 -0.9375 0
-0.96875 -0.9375 0
-0.984375 -0.921875 0
-0.96875 -0.921875 0
-1 -0.921875 0
-0.984375 -0.921875 0
-1 -0.90625 0
-0.984375 -0.90625 0
-0.984375 -0.921875 0
-0.96875 -0.921875 0
-0.984375 -0.90625 0
-0.96875 -0.90625 0
-0.96875 -0.9375 0
-0.953125 -0.9375 0
-0.96875 -0.921875 0
-0.953125 -0.921875 0
-0.953125 -0.9375 0
-0.9375 -0.9375 0
-0.953125 -0.921875 0
-0.9375 -0.921875 0
-0.96875 -0.921875 0
-0.953125 -0.921875 0
-0.96875 -0.90625 0
-0.953125 -0.90625 0
-0.953125 -0.921875 0
-0.9375 -0.921875 0
-0.953125 -0.90625 0
-0.9375 -0.90625 0
-1 -0.90625 0
-0.984375 -0.90625 0
-1 -0.890625 0
-0.984375 -0.890625 0
-0.984375 -0.90625 0
-0.96875 -0.90625 0
-0.984375 -0.890625 0
-0.96875 -0.890625 0
-1 -0.890625 0
-0.984375 -0.890625 0
-1 -0.875 0
-0.984375 -0.875 0
-0.984375 -0.890625 0
-0.96875 -0.890625 0
-0.984375 -0.875 0
-0.96875 -0.875 0
-0.96875 -0.90625 0
-0.953125 -0.90625 0
-0.96875 -0.890625 0
-0.953125 -0.890625 0
-0.953125 -0.90625 0
-0.9375 -0.90625 0
-0.953125 -0.890625 0
-0.9375 -0.890625 0
-0.96875 -0.890625 0
-0.953125 -0.890625 0
-0.96875 -0.875 0
-0.953125 -0.875 0
-0.953125 -0.890625 0
-0.9375 -0.890625 0
-0.953125 -0.875 0
-0.9375 -0.875 0
-0.9375 -0.9375 0
-0.921875 -0.9375 0
-0.9375 -0.921875 0
-0.921875 -0.921875 0
-0.921875 -0.9375 0
-0.90625 -0.9375 0
-0.921875 -0.921875 0
-0.90625 -0.921875 0
-0.9375 -0.921875 0
-0.921875 -0.921875 0
-0.9375 -0.90625 0
-0.921875 -0.90625 0
-0.921875 -0.921875 0
-0.90625 -0.921875 0
-0.921875 -0.90625 0
-0.90625 -0.90625 0
-0.90625 -0.9375 0
-0.890625 -0.9375 0
-0.90625 -0.921875 0
-0.890625 -0.921875 0
-0.890625 -0.9375 0
-0.875 -0.9375 0
-0.890625 -0.921875 0
-0.875 -0.921875 0
-0.90625 -0.921875 0
-0.890625 -0.921875 0
-0.90625 -0.90625 0
-0.890625 -0.90625 0
-0.890625 -0.921875 0
-0.875 -0.921875 0
-0.890625 -0.90625 0
-0.875 -0.90625 0
-0.9375 -0.90625 0
-0.921875 -0.90625 0
-0.9375 -0.890625 0
-0.921875 -0.890625 0
-0.921875 -0.90625 0
-0.90625 -0.90625 0
-0.921875 -0.890625 0
-0.90625 -0.890625 0
-0.9375 -0.890625 0
-0.921875 -0.890625 0
-0.9375 -0.875 0
-0.921875 -0.875 0
-0.921875 -0.890625 0
-0.90625 -0.890625 0
-0.921875 -0.875 0
-0.90625 -0.875 0
-0.90625 -0.90625 0
-0.890625 -0.90625 0
-0.90625 -0.890625 0
-0.890625 -0.890625 0
-0.890625 -0.90625 0
-0.875 -0.90625 0
-0.890625 -0.890625 0
-0.875 -0.890625 0
-0.90625 -0.890625 0
-0.890625 -0.890625 0
-0.90625 -0.875 0
-0.890625 -0.875 0
-0.890625 -0.890625 0
-0.875 -0.890625 0
-0.890625 -0.875 0
-0.875 -0.875 0
-0.875 -1 0
-0.859375 -1 0
-0.875 -0.984375 0
-0.859375 -0.984375 0
-0.859375 -1 0
-0.84375 -1 0
-0.859375 -0.984375 0
-0.84375 -0.984375 0
-0.875 -0.984375 0
-0.859375 -0.984375 0
-0.875 -0.96875 0
-0.859375 -0.96875 0
-0.859375 -0.984375 0
-0.84375 -0.984375 0
-0.859375 -0.96875 0
-0.84375 -0.96875 0
-0.84375 -1 0
-0.828125 -1 0
-0.84375 -0.984375 0
-0.828125 -0.984375 0
-0.828125 -1 0
-0.8125 -1 0
-0.828125 -0.984375 0
-0.8125 -0.984375 0
-0.84375 -0.984375 0
-0.828125 -0.984375 0
-0.84375 -0.96875 0
-0.828125 -0.96875 0
-0.828125 -0.984375 0
-0.8125 -0.984375 0
-0.828125 -0.96875 0
-0.8125 -0.96875 0
-0.875 -0.96875 0
-0.859375 -0.96875 0
-0.875 -0.953125 0
-0.859375 -0.953125 0
-0.859375 -0.96875 0
-0.84375 -0.96875 0
-0.859375 -0.953125 0
-0.84375 -0.953125 0
-0.875 -0.953125 0
-0.859375 -0.953125 0
-0.875 -0.9375 0
-0.859375 -0.9375 0
-0.859375 -0.953125 0
-0.84375 -0.953125 0
-0.859375 -0.9375 0
-0.84375 -0.9375 0
-0.84375 -0.96875 0
-0.828125 -0.96875 0
-0.84375 -0.953125 0
-0.828125 -0.953125 0
-0.828125 -0.96875 0
-0.8125 -0.96875 0
-0.828125 -0.953125 0
-0.8125 -0.953125 0
-0.84375 -0.953125 0
-0.828125 -0.953125 0
-0.84375 -0.9375 0
-0.828125 -0.9375 0
-0.828125 -0.953125 0
-0.8125 -0.953125 0
-0.828125 -0.9375 0
-0.8125 -0.9375 0
-0.8125 -1 0
-0.796875 -1 0
-0.8125 -0.984375 0
-0.796875 -0.984375 0
-0.796875 -1 0
-0.78125 -1 0
-0.796875 -0.984375 0
-0.78125 -0.984375 0
-0.8125 -0.984375 0
-0.796875 -0.984375 0
-0.8125 -0.96875 0
-0.796875 -0.96875 0
-0.796875 -0.984375 0
-0.78125 -0.984375 0
-0.796875 -0.96875 0
-0.78125 -0.96875 0
-0.78125 -1 0
-0.765625 -1 0
-0.78125 -0.984375 0
-0.765625 -0.984375 0
-0.765625 -1 0
-0.75 -1 0
-0.765625 -0.984375 0
-0.75 -0.984375 0
-0.78125 -0.984375 0
-0.765625 -0.984375 0
-0.78125 -0.96875 0
-0.765625 -0.96875 0
-0.765625 -0.984375 0
-0.75 -0.984375 0
-0.765625 -0.96875 0
-0.75 -0.96875 0
-0.8125 -0.96875 0
-0.796875 -0.96875 0
-0.8125 -0.953125 0
-0.796875 -0.953125 0
-0.796875 -0.96875 0
-0.78125 -0.96875 0
-0.796875 -0.953125 0
-0.78125 -0.953125 0
-0.8125 -0.953125 0
-0.796875 -0.953125 0
-0.8125 -0.9375 0
-0.796875 -0.9375 0
-0.796875 -0.953125 0
-0.78125 -0.953125 0
-0.796875 -0.9375 0
-0.78125 -0.9375 0
-0.78125 -0.96875 0
-0.765625 -0.96875 0
-0.78125 -0.953125 0
-0.765625 -0.953125 0
-0.765625 -0.96875 0
-0.75 -0.96875 0
-0.765625 -0.953125 0
-0.75 -0.953125 0
-0.78125 -0.953125 0
-0.765625 -0.953125 0
-0.78125 -0.9375 0
-0.765625 -0.9375 0
-0.765625 -0.953125 0
-0.75 -0.953125 0
-0.765625 -0.9375 0
-0.75 -0.9375 0
-0.875 -0.9375 0
-0.859375 -0.9375 0
-0.875 -0.921875 0
-0.859375 -0.921875 0
-0.859375 -0.9375 0
-0.84375 -0.9375 0
-0.859375 -0.921875 0
-0.84375 -0.921875 0
-0.875 -0.921875 0
-0.859375 -0.921875 0
-0.875 -0.90625 0
-0.859375 -0.90625 0
-0.859375 -0.921875 0
-0.84375 -0.921875 0
-0.859375 -0.90625 0
-0.84375 -0.90625 0
-0.84375 -0.9375 0
-0.828125 -0.9375 0
-0.84375 -0.921875 0
-0.828125 -0.921875 0
-0.828125 -0.9375 0
-0.8125 -0.9375 0
-0.828125 -0.921875 0
-0.8125 -0.921875 0
-0.84375 -0.921875 0
-0.828125 -0.921875 0
-0.84375 -0.90625 0
-0.828125 -0.90625 0
-0.828125 -0.921875 0
-0.8125 -0.921875 0
-0.828125 -0.90625 0
-0.8125 -0.90625 0
-0.875 -0.90625 0
-0.859375 -0.90625 0
-0.875 -0.890625 0
-0.859375 -0.890625 0
-0.859375 -0.90625 0
-0.84375 -0.90625 0
-0.859375 -0.890625 0
-0.84375 -0.890625 0
-0.875 -0.890625 0
-0.859375 -0.890625 0
-0.875 -0.875 0
-0.859375 -0.875 0
-0.859375 -0.890625 0
-0.84375 -0.890625 0
-0.859375 -0.875 0
-0.84375 -0.875 0
-0.84375 -0.90625 0
-0.828125 -0.90625 0
-0.84375 -0.890625 0
-0.828125 -0.890625 0
-0.828125 -0.90625 0
-0.8125 -0.90625 0
-0.828125 -0.890625 0
-0.8125 -0.890625 0
-0.84375 -0.890625 0
-0.828125 -0.890625 0
-0.84375 -0.875 0
-0.828125 -0.875 0
-0.828125 -0.890625 0
-0.8125 -0.890625 0
-0.828125 -0.875 0
-0.8125 -0.875 0
-0.8125 -0.9375 0
-0.796875 -0.9375 0
-0.8125 -0.921875 0
-0.796875 -0.921875 0
-0.796875 -0.9375 0
-0.78125 -0.9375 0
-0.796875 -0.921875 0
-0.78125 -0.921875 0
-0.8125 -0.921875 0
-0.796875 -0.921875 0
-0.8125 -0.90625 0
-0.796875 -0.90625 0
-0.796875 -0.921875 0
-0.78125 -0.921875 0
-0.796875 -0.90625 0
-0.78125 -0.90625 0
-0.78125 -0.9375 0
-0.765625 -0.9375 0
-0.78125 -0.921875 0
-0.765625 -0.921875 0
-0.765625 -0.9375 0
-0.75 -0.9375 0
-0.765625 -0.921875 0
-0.75 -0.921875 0
-0.78125 -0.921875 0
-0.765625 -0.921875 0
-0.78125 -0.90625 0
-0.765625 -0.90625 0
-0.765625 -0.921875 0
-0.75 -0.921875 0
-0.765625 -0.90625 0
-0.75 -0.90625 0
-0.8125 -0.90625 0
-0.796875 -0.90625 0
-0.8125 -0.890625 0
-0.796875 -0.890625 0
-0.796875 -0.90625 0
[...]
  <PointData Scalars="scalars">
    <DataArray type="Float32" Name="U" format="ascii">
0 0 0 8.89745e-05 0 0 8.89745e-05 0.000178322 0 8.89745e-05 0 0.000179191 8.89745e-05 0.000178322 0.000179191 0.000359327 0 0 0.000178322 0.000268532 0 0 0.000268532 0.000360192 0.000178322 0.000268532 0.000359327 0.00054114 0.000268532 0.000360192 0.00054114 0.000725253 0 0.000179191 0 0.000246542 0.000179191 0.000359327 0.000246542 0.000493519 0 0.000246542 0 0.000311657 0.000246542 0.000493519 0.000311657 0.000626496 0.000359327 0.00054114 0.000493519 0.000741516 0.00054114 0.000725253 0.000741516 0.000991182 0.000493519 0.000741516 0.000626496 0.000947863 0.000741516 0.000991182 0.000947863 0.00127869 0 0 0.000360192 0.000454382 0 0 0.000454382 0.00055256 0.000360192 0.000454382 0.000725253 0.000911288 0.000454382 0.00055256 0.000911288 0.00109814 0 0 0.00055256 0.00065699 0 0 0.00065699 0.000769759 0.00055256 0.00065699 0.00109814 0.0012827 0.00065699 0.000769759 0.0012827 0.00146176 0.000725253 0.000911288 0.000991182 0.00124427 0.000911288 0.00109814 0.00124427 0.00150363 0.000991182 0.00124427 0.00127869 0.00162151 0.00124427 0.00150363 0.00162151 0.00197662 0.00109814 0.0012827 0.00150363 0.00177504 0.0012827 0.00146176 0.00177504 0.00206539 0.00150363 0.00177504 0.00197662 0.00234181 0.00177504 0.00206539 0.00234181 0.0027113 0 0.000311657 0 0.000377988 0.000311657 0.000626496 0.000377988 0.000756384 0 0.000377988 0 0.000422691 0.000377988 0.000756384 0.000422691 0.000848484 0.000626496 0.000947863 0.000756384 0.00113484 0.000947863 0.00127869 0.00113484 0.00151436 0.000756384 0.00113484 0.000848484 0.00128156 0.00113484 0.00151436 0.00128156 0.00172406 0 0.000422691 0 0.000471435 0.000422691 0.000848484 0.000471435 0.000944281 0 0.000471435 0 0.000495607 0.000471435 0.000944281 0.000495607 0.000993683 0.000848484 0.00128156 0.000944281 0.00141993 0.00128156 0.00172406 0.00141993 0.00189994 0.000944281 0.00141993 0.000993683 0.00149352 0.00141993 0.00189994 0.00149352 0.00200018 0.00127869 0.00162151 0.00151436 0.00189453 0.00162151 0.00197662 0.00189453 0.00227926 0.00151436 0.00189453 0.00172406 0.00218082 0.00189453 0.00227926 0.00218082 0.00265103 0.00197662 0.00234181 0.00227926 0.00267205 0.00234181 0.0027113 0.00267205 0.00308378 0.00227926 0.00267205 0.00265103 0.00313749 0.00267205 0.00308378 0.00313749 0.00363299 0.00172406 0.00218082 0.00189994 0.00238581 0.00218082 0.00265103 0.00238581 0.00288061 0.00189994 0.00238581 0.00200018 0.0025095 0.00238581 0.00288061 0.0025095 0.00302867 0.00265103 0.00313749 0.00288061 0.00338642 0.00313749 0.00363299 0.00338642 0.00390937 0.00288061 0.00338642 0.00302867 0.00355123 0.00338642 0.00390937 0.00355123 0.00408755 0 0 0.000769759 0.000891809 0 0 0.000891809 0.0010198 0.000769759 0.000891809 0.00146176 0.00163291 0.000891809 0.0010198 0.00163291 0.00180087 0 0 0.0010198 0.00114438 0 0 0.00114438 0.00125051 0.0010198 0.00114438 0.00180087 0.00197996 0.00114438 0.00125051 0.00197996 0.00219565 0.00146176 0.00163291 0.00206539 0.00238209 0.00163291 0.00180087 0.00238209 0.00272498 0.00206539 0.00238209 0.0027113 0.00307839 0.00238209 0.00272498 0.00307839 0.00344088 0.00180087 0.00197996 0.00272498 0.00308339 0.00197996 0.00219565 0.00308339 0.00343137 0.00272498 0.00308339 0.00344088 0.00380718 0.00308339 0.00343137 0.00380718 0.00420043 0 0 0.00125051 0.00132563 0 0 0.00132563 0.00137298 0.00125051 0.00132563 0.00219565 0.00246991 0.00132563 0.00137298 0.00246991 0.00280088 0 0 0.00137298 0.00142171 0 0 0.00142171 0.00151758 0.00137298 0.00142171 0.00280088 0.00314344 0.00142171 0.00151758 0.00314344 0.00342781 0.00219565 0.00246991 0.00343137 0.00374542 0.00246991 0.00280088 0.00374542 0.00402391 0.00343137 0.00374542 0.00420043 0.00464476 0.00374542 0.00402391 0.00464476 0.00514816 0.00280088 0.00314344 0.00402391 0.00431361 0.00314344 0.00342781 0.00431361 0.00468271 0.00402391 0.00431361 0.00514816 0.00567648 0.00431361 0.00468271 0.00567648 0.00618223 0.0027113 0.00307839 0.00308378 0.00352278 0.00307839 0.00344088 0.00352278 0.00399955 0.00308378 0.00352278 0.00363299 0.00413812 0.00352278 0.00399955 0.00413812 0.00464415 0.00344088 0.00380718 0.00399955 0.00451051 0.00380718 0.00420043 0.00451051 0.00504547 0.00399955 0.00451051 0.00464415 0.0051618 0.00451051 0.00504547 0.0051618 0.00569389 0.00363299 0.00413812 0.00390937 0.00444978 0.00413812 0.00464415 0.00444978 0.00501416 0.00390937 0.00444978 0.00408755 0.00463307 0.00444978 0.00501416 0.00463307 0.0052023 0.00464415 0.0051618 0.00501416 0.00559345 0.0051618 0.00569389 0.00559345 0.00619278 0.00501416 0.00559345 0.0052023 0.00579412 0.00559345 0.00619278 0.00579412 0.00641662 0.00420043 0.00464476 0.00504547 0.00558492 0.00464476 0.00514816 0.00558492 0.00612575 0.00504547 0.00558492 0.00569389 0.00626365 0.00558492 0.00612575 0.00626365 0.00686635 0.00514816 0.00567648 0.00612575 0.00668834 0.00567648 0.00618223 0.00668834 0.0073054 0.00612575 0.00668834 0.00686635 0.0075027 0.00668834 0.0073054 0.0075027 0.00814504 0.00569389 0.00626365 0.00619278 0.00679582 0.00626365 0.00686635 0.00679582 0.00742111 0.00619278 0.00679582 0.00641662 0.00706464 0.00679582 0.00742111 0.00706464 0.00772945 0.00686635 0.0075027 0.00742111 0.00805514 0.0075027 0.00814504 0.00805514 0.00872991 0.00742111 0.00805514 0.00772945 0.00842213 0.00805514 0.00872991 0.00842213 0.00913643 0 0.000495607 0 0.000498118 0.000495607 0.000993683 0.000498118 0.000997117 0 0.000498118 0 0.000515306 0.000498118 0.000997117 0.000515306 0.00103191 0.000993683 0.00149352 0.000997117 0.00150405 0.00149352 0.00200018 0.00150405 0.00201425 0.000997117 0.00150405 0.00103191 0.00154811 0.00150405 0.00201425 0.00154811 0.00206788 0 0.000515306 0 0.000521373 0.000515306 0.00103191 0.000521373 0.00104703 0 0.000521373 0 0.000546932 0.000521373 0.00104703 0.000546932 0.00108785 0.00103191 0.00154811 0.00104703 0.00157121 0.00154811 0.00206788 0.00157121 0.00210849 0.00104703 0.00157121 0.00108785 0.00163999 0.00157121 0.00210849 0.00163999 0.00217329 0.00200018 0.0025095 0.00201425 0.00254172 0.0025095 0.00302867 0.00254172 0.00307494 0.00201425 0.00254172 0.00206788 0.00258512 0.00254172 0.00307494 0.00258512 0.00310982 0.00302867 0.00355123 0.00307494 0.00363355 0.00355123 0.00408755 0.00363355 0.00419449 0.00307494 0.00363355 0.00310982 0.00363157 0.00363355 0.00419449 0.00363157 0.00417495 0.00206788 0.00258512 0.00210849 0.00264423 0.00258512 0.00310982 0.00264423 0.00319967 0.00210849 0.00264423 0.00217329 0.0027293 0.00264423 0.00319967 0.0027293 0.00325418 0.00310982 0.00363157 0.00319967 0.00375117 0.00363157 0.00417495 0.00375117 0.0043171 0.00319967 0.00375117 0.00325418 0.00381862 0.00375117 0.0043171 0.00381862 0.00434845 0 0.000546932 0 0.000559262 0.000546932 0.00108785 0.000559262 0.00112297 0 0.000559262 0 0.000570511 0.000559262 0.00112297 0.000570511 0.00114692 0.00108785 0.00163999 0.00112297 0.00168169 0.00163999 0.00217329 0.00168169 0.00225558 0.00112297 0.00168169 0.00114692 0.0017089 0.00168169 0.00225558 0.0017089 0.00228665 0 0.000570511 0 0.000563824 0.000570511 0.00114692 0.000563824 0.00111255 0 0.000563824 0 0.000542001 0.000563824 0.00111255 0.000542001 0.00109052 0.00114692 0.0017089 0.00111255 0.00169089 0.0017089 0.00228665 0.00169089 0.00222375 0.00111255 0.00169089 0.00109052 0.00162092 0.00169089 0.00222375 0.00162092 0.00217386 0.00217329 0.0027293 0.00225558 0.00281715 0.0027293 0.00325418 0.00281715 0.00340762 0.00225558 0.00281715 0.00228665 0.00283787 0.00281715 0.00340762 0.00283787 0.00341048 0.00325418 0.00381862 0.00340762 0.00396914 0.00381862 0.00434845 0.00396914 0.00457196 0.00340762 0.00396914 0.00341048 0.00395354 0.00396914 0.00457196 0.00395354 0.00451979 0.00228665 0.00283787 0.00222375 0.00281686 0.00283787 0.00341048 0.00281686 0.00333286 0.00222375 0.00281686 0.00217386 0.00268537 0.00281686 0.00333286 0.00268537 0.00324501 0.00341048 0.00395354 0.00333286 0.00393818 0.00395354 0.00451979 0.00393818 0.00443281 0.00333286 0.00393818 0.00324501 0.0037309 0.00393818 0.00443281 0.0037309 0.0043048 0.00408755 0.00463307 0.00419449 0.0047798 0.00463307 0.0052023 0.0047798 0.00535375 0.00419449 0.0047798 0.00417495 0.00472434 0.0047798 0.00535375 0.00472434 0.00532239 0.0052023 0.00579412 0.00535375 0.00594853 0.00579412 0.00641662 0.00594853 0.00653402 0.00535375 0.00594853 0.00532239 0.0059282 0.00594853 0.00653402 0.0059282 0.00658417 0.00417495 0.00472434 0.0043171 0.00486817 0.00472434 0.00532239 0.00486817 0.00541545 0.0043171 0.00486817 0.00434845 0.00494629 0.00486817 0.00541545 0.00494629 0.00551487 0.00532239 0.0059282 0.00541545 0.00595248 0.0059282 0.00658417 0.00595248 0.00649701 0.00541545 0.00595248 0.00551487 0.00616702 0.00595248 0.00649701 0.00616702 0.00676548 0.00641662 0.00706464 0.00653402 0.00716719 0.00706464 0.00772945 0.00716719 0.00782315 0.00653402 0.00716719 0.00658417 0.00719802 0.00716719 0.00782315 0.00719802 0.0078317 0.00772945 0.00842213 0.00782315 0.00853376 0.00842213 0.00913643 0.00853376 0.00923318 0.00782315 0.00853376 0.0078317 0.00840545 0.00853376 0.00923318 0.00840545 0.00908169 0.00658417 0.00719802 0.00649701 0.00710236 0.00719802 0.0078317 0.00710236 0.00775232 0.00649701 0.00710236 0.00676548 0.00740168 0.00710236 0.00775232 0.00740168 0.00794162 0.0078317 0.00840545 0.00775232 0.00850508 0.00840545 0.00908169 0.00850508 0.0091967 0.00775232 0.00850508 0.00794162 0.0084935 0.00850508 0.0091967 0.0084935 0.00904386 0.00434845 0.00494629 0.00457196 0.0051116 0.00494629 0.00551487 0.0051116 0.00570647 0.00457196 0.0051116 0.00451979 0.0050718 0.0051116 0.00570647 0.0050718 0.00563751 0.00551487 0.00616702 0.00570647 0.00620285 0.00616702 0.00676548 0.00620285 0.00680156 0.00570647 0.00620285 0.00563751 0.00621741 0.00620285 0.00680156 0.00621741 0.00676454 0.00451979 0.0050718 0.00443281 0.00503978 0.0050718 0.00563751 0.00503978 0.0055099 0.00443281 0.00503978 0.0043048 0.00475712 0.00503978 0.0055099 0.00475712 0.00534529 0.00563751 0.00621741 0.0055099 0.00610967 0.00621741 0.00676454 0.00610967 0.00657225 0.0055099 0.00610967 0.00534529 0.00574042 0.00610967 0.00657225 0.00574042 0.00632277 0.00676548 0.00740168 0.00680156 0.0072984 0.00740168 0.00794162 0.0072984 0.00796435 0.00680156 0.0072984 0.00676454 0.0073614 0.0072984 0.00796435 0.0073614 0.00785141 0.00794162 0.0084935 0.00796435 0.00850089 0.0084935 0.00904386 0.00850089 0.00918772 0.00796435 0.00850089 0.00785141 0.00847458 0.00850089 0.00918772 0.00847458 0.00891963 0.00676454 0.0073614 0.00657225 0.00715528 0.0073614 0.00785141 0.00715528 0.0076183 0.00657225 0.00715528 0.00632277 0.00664945 0.00715528 0.0076183 0.00664945 0.00724202 0.00785141 0.00847458 0.0076183 0.0081252 0.00847458 0.00891963 0.0081252 0.0085924 0.0076183 0.0081252 0.00724202 0.00756595 0.0081252 0.0085924 0.00756595 0.00816956 0 0 0.00151758 0.00168749 0 0 0.00168749 0.00190708 0.00151758 0.00168749 0.00342781 0.00361601 0.00168749 0.00190708 0.00361601 0.00375707 0 0 0.00190708 0.00211012 0 0 0.00211012 0.00225708 0.00190708 0.00211012 0.00375707 0.00396071 0.00211012 0.00225708 0.00396071 0.0042787 0.00342781 0.00361601 0.00468271 0.00516475 0.00361601 0.00375707 0.00516475 0.00569274 0.00468271 0.00516475 0.00618223 0.00664681 0.00516475 0.00569274 0.00664681 0.00714495 0.00375707 0.00396071 0.00569274 0.00615098 0.00396071 0.0042787 0.00615098 0.00650854 0.00569274 0.00615098 0.00714495 0.00777039 0.00615098 0.00650854 0.00777039 0.00852881 0 0 0.00225708 0.00237421 0 0 0.00237421 0.00250619 0.00225708 0.00237421 0.0042787 0.0046403 0.00237421 0.00250619 0.0046403 0.00495398 0 0 0.00250619 0.00262531 0 0 0.00262531 0.00269399 0.00250619 0.00262531 0.00495398 0.00528328 0.00262531 0.00269399 0.00528328 0.00573981 0.0042787 0.0046403 0.00650854 0.00689608 0.0046403 0.00495398 0.00689608 0.00744689 0.00650854 0.00689608 0.00852881 0.00925323 0.00689608 0.00744689 0.00925323 0.00980455 0.00495398 0.00528328 0.00744689 0.0080721 0.00528328 0.00573981 0.0080721 0.00857277 0.00744689 0.0080721 0.00980455 0.0102642 0.0080721 0.00857277 0.0102642 0.0108738 0.00618223 0.00664681 0.0073054 0.00798384 0.00664681 0.00714495 0.00798384 0.00866476 0.0073054 0.00798384 0.00814504 0.00880175 0.00798384 0.00866476 0.00880175 0.00949063 0.00714495 0.00777039 0.00866476 0.00928894 0.00777039 0.00852881 0.00928894 0.00985876 0.00866476 0.00928894 0.00949063 0.0102438 0.00928894 0.00985876 0.0102438 0.0110571 0.00814504 0.00880175 0.00872991 0.00942108 0.00880175 0.00949063 0.00942108 0.0101703 0.00872991 0.00942108 0.00913643 0.00990856 0.00942108 0.0101703 0.00990856 0.0106675 0.00949063 0.0102438 0.0101703 0.0109607 0.0102438 0.0110571 0.0109607 0.011823 0.0101703 0.0109607 0.0106675 0.0114134 0.0109607 0.011823 0.0114134 0.01207 0.00852881 0.00925323 0.00985876 0.0105156 0.00925323 0.00980455 0.0105156 0.0113467 0.00985876 0.0105156 0.0110571 0.0118812 0.0105156 0.0113467 0.0118812 0.0127092 0.00980455 0.0102642 0.0113467 0.0123144 0.0102642 0.0108738 0.0123144 0.0132173 0.0113467 0.0123144 0.0127092 0.013518 0.0123144 0.0132173 0.013518 0.0143761 0.0110571 0.0118812 0.011823 0.0126749 0.0118812 0.0127092 0.0126749 0.0134688 0.011823 0.0126749 0.01207 0.0128296 0.0126749 0.0134688 0.0128296 0.0137329 0.0127092 0.013518 0.0134688 0.01424 0.013518 0.0143761 0.01424 0.0150986 0.0134688 0.01424 0.0137329 0.0148105 0.01424 0.0150986 0.0148105 0.0157644 0 0 0.00269399 0.00280347 0 0 0.00280347 0.00311021 0.00269399 0.00280347 0.00573981 0.00622636 0.00280347 0.00311021 0.00622636 0.00648954 0 0 0.00311021 0.0035358 0 0 0.0035358 0.00378892 0.00311021 0.0035358 0.00648954 0.00661593 0.0035358 0.00378892 0.00661593 0.00700489 0.00573981 0.00622636 0.00857277 0.00897018 0.00622636 0.00648954 0.00897018 0.0095318 0.00857277 0.00897018 0.0108738 0.0116906 0.00897018 0.0095318 0.0116906 0.0125119 0.00648954 0.00661593 0.0095318 0.0102402 0.00661593 0.00700489 0.0102402 0.0108088 0.0095318 0.0102402 0.0125119 0.0132642 0.0102402 0.0108088 0.0132642 0.0140191 0 0 0.00378892 0.00384007 0 0 0.00384007 0.00395831 0.00378892 0.00384007 0.00700489 0.00767469 0.00384007 0.00395831 0.00767469 0.00821863 0 0 0.00395831 0.00421649 0 0 0.00421649 0.00446328 0.00395831 0.00421649 0.00821863 0.00859235 0.00421649 0.00446328 0.00859235 0.00910872 0.00700489 0.00767469 0.0108088 0.0112414 0.00767469 0.00821863 0.0112414 0.0118974 0.0108088 0.0112414 0.0140191 0.0147988 0.0112414 0.0118974 0.0147988 0.0154194 0.00821863 0.00859235 0.0118974 0.0127099 0.00859235 0.00910872 0.0127099 0.0132928 0.0118974 0.0127099 0.0154194 0.0160043 0.0127099 0.0132928 0.0160043 0.0167418 0.0108738 0.0116906 0.0132173 0.0139923 0.0116906 0.0125119 0.0139923 0.0147058 0.0132173 0.0139923 0.0143761 0.0152641 0.0139923 0.0147058 0.0152641 0.0162756 0.0125119 0.0132642 0.0147058 0.0154811 0.0132642 0.0140191 0.0154811 0.0163919 0.0147058 0.0154811 0.0162756 0.0172633 0.0154811 0.0163919 0.0172633 0.018123 0.0143761 0.0152641 0.0150986 0.0161216 0.0152641 0.0162756 0.0161216 0.0170744 0.0150986 0.0161216 0.0157644 0.0165874 0.0161216 0.0170744 0.0165874 0.0175192 0.0162756 0.0172633 0.0170744 0.0180744 0.0172633 0.018123 0.0180744 0.0191698 0.0170744 0.0180744 0.0175192 0.0185668 0.0180744 0.0191698 0.0185668 0.0196758 0.0140191 0.0147988 0.0163919 0.0173304 0.0147988 0.0154194 0.0173304 0.0182404 0.0163919 0.0173304 0.018123 0.0189664 0.0173304 0.0182404 0.0189664 0.0200737 0.0154194 0.0160043 0.0182404 0.0190553 0.0160043 0.0167418 0.0190553 0.0200171 0.0182404 0.0190553 0.0200737 0.0213404 0.0190553 0.0200171 0.0213404 0.0221395 0.018123 0.0189664 0.0191698 0.0204 0.0189664 0.0200737 0.0204 0.0212795 0.0191698 0.0204 0.0196758 0.0205857 0.0204 0.0212795 0.0205857 0.0218532 0.0200737 0.0213404 0.0212795 0.0221133 0.0213404 0.0221395 0.0221133 0.0234399 0.0212795 0.0221133 0.0218532 0.0229759 0.0221133 0.0234399 0.0229759 0.0240572 0.00913643 0.00990856 0.00923318 0.00991634 0.00990856 0.0106675 0.00991634 0.0106085 0.00923318 0.00991634 0.00908169 0.00979961 0.00991634 0.0106085 0.00979961 0.0106601 0.0106675 0.0114134 0.0106085 0.0113796 0.0114134 0.01207 0.0113796 0.0123118 0.0106085 0.0113796 0.0106601 0.0114594 0.0113796 0.0123118 0.0114594 0.0122241 0.00908169 0.00979961 0.0091967 0.00991043 0.00979961 0.0106601 0.00991043 0.0104678 0.0091967 0.00991043 0.00904386 0.00966227 0.00991043 0.0104678 0.00966227 0.0103923 0.0106601 0.0114594 0.0104678 0.0111795 0.0114594 0.0122241 0.0111795 0.0118625 0.0104678 0.0111795 0.0103923 0.0110497 0.0111795 0.0118625 0.0110497 0.0118036 0.01207 0.0128296 0.0123118 0.0132165 0.0128296 0.0137329 0.0132165 0.0140711 0.0123118 0.0132165 0.0122241 0.0129717 0.0132165 0.0140711 0.0129717 0.0138237 0.0137329 0.0148105 0.0140711 0.0147668 0.0148105 0.0157644 0.0147668 0.0157242 0.0140711 0.0147668 0.0138237 0.0148347 0.0147668 0.0157242 0.0148347 0.0156769 0.0122241 0.0129717 0.0118625 0.0127608 0.0129717 0.0138237 0.0127608 0.0135238 0.0118625 0.0127608 0.0118036 0.0123366 0.0127608 0.0135238 0.0123366 0.0131127 0.0138237 0.0148347 0.0135238 0.0143579 0.0148347 0.0156769 0.0143579 0.0151848 0.0135238 0.0143579 0.0131127 0.0136654 0.0143579 0.0151848 0.0136654 0.0145857 0.00904386 0.00966227 0.00918772 0.00968795 0.00966227 0.0103923 0.00968795 0.0103068 0.00918772 0.00968795 0.00891963 0.00958565 0.00968795 0.0103068 0.00958565 0.00995978 0.0103923 0.0110497 0.0103068 0.0108222 0.0110497 0.0118036 0.0108222 0.0114069 0.0103068 0.0108222 0.00995978 0.0106192 0.0108222 0.0114069 0.0106192 0.0109973 0.00891963 0.00958565 0.0085924 0.00902773 0.00958565 0.00995978 0.00902773 0.00962384 0.0085924 0.00902773 0.00816956 0.00845478 0.00902773 0.00962384 0.00845478 0.00887359 0.00995978 0.0106192 0.00962384 0.00999154 0.0106192 0.0109973 0.00999154 0.0105786 0.00962384 0.00999154 0.00887359 0.00911693 0.00999154 0.0105786 0.00911693 0.00945764 0.0118036 0.0123366 0.0114069 0.0120359 0.0123366 0.0131127 0.0120359 0.012592 0.0114069 0.0120359 0.0109973 0.0116778 0.0120359 0.012592 0.0116778 0.0120635 0.0131127 0.0136654 0.012592 0.0134025 0.0136654 0.0145857 0.0134025 0.0137834 0.012592 0.0134025 0.0120635 0.012461 0.0134025 0.0137834 0.012461 0.0129309 0.0109973 0.0116778 0.0105786 0.0106686 0.0116778 0.0120635 0.0106686 0.0112435 0.0105786 0.0106686 0.00945764 0.00998513 0.0106686 0.0112435 0.00998513 0.0102115 0.0120635 0.012461 0.0112435 0.0114561 0.012461 0.0129309 0.0114561 0.0120714 0.0112435 0.0114561 0.0102115 0.0107273 0.0114561 0.0120714 0.0107273 0.0106642 0.0157644 0.0165874 0.0157242 0.0167758 0.0165874 0.0175192 0.0167758 0.0178757 0.0157242 0.0167758 0.0156769 0.0165919 0.0167758 0.0178757 0.0165919 0.0173688 0.0175192 0.0185668 0.0178757 0.0187574 0.0185668 0.0196758 0.0187574 0.0196442 0.0178757 0.0187574 0.0173688 0.0185256 0.0187574 0.0196442 0.0185256 0.0195773 0.0156769 0.0165919 0.0151848 0.0160175 0.0165919 0.0173688 0.0160175 0.0170594 0.0151848 0.0160175 0.0145857 0.0153611 0.0160175 0.0170594 0.0153611 0.0162105 0.0173688 0.0185256 0.0170594 0.0178855 0.0185256 0.0195773 0.0178855 0.018999 0.0170594 0.0178855 0.0162105 0.0169129 0.0178855 0.018999 0.0169129 0.017515 0.0196758 0.0205857 0.0196442 0.0207685 0.0205857 0.0218532 0.0207685 0.0217991 0.0196442 0.0207685 0.0195773 0.0207421 0.0207685 0.0217991 0.0207421 0.0217047 0.0218532 0.0229759 0.0217991 0.0232432 0.0229759 0.0240572 0.0232432 0.0241697 0.0217991 0.0232432 0.0217047 0.0223812 0.0232432 0.0241697 0.0223812 0.0239886 0.0195773 0.0207421 0.018999 0.0196292 0.0207421 0.0217047 0.0196292 0.0208963 0.018999 0.0196292 0.017515 0.0187361 0.0196292 0.0208963 0.0187361 0.0191447 0.0217047 0.0223812 0.0208963 0.0220403 0.0223812 0.0239886 0.0220403 0.0224996 0.0208963 0.0220403 0.0191447 0.0201515 0.0220403 0.0224996 0.0201515 0.0211006 0.0145857 0.0153611 0.0137834 0.0144598 0.0153611 0.0162105 0.0144598 0.0147629 0.0137834 0.0144598 0.0129309 0.0132964 0.0144598 0.0147629 0.0132964 0.0140319 0.0162105 0.0169129 0.0147629 0.0157005 0.0169129 0.017515 0.0157005 0.0162853 0.014762