# vtk DataFile Version 3.0
#This file was generated by the deal.II library on 2021/4/23 at 0:45:38
ASCII
DATASET UNSTRUCTURED_GRID

FIELD FieldData 2
CYCLE 1 1 int
19
TIME 1 1 double
0.038
POINTS 1464 double
-1 -1 0
-0.75 -1 0
-1 -0.75 0
-0.75 -0.75 0
-0.75 -1 0
-0.5 -1 0
-0.75 -0.75 0
-0.5 -0.75 0
-1 -0.75 0
-0.75 -0.75 0
-1 -0.5 0
-0.75 -0.5 0
-0.75 -0.75 0
-0.5 -0.75 0
-0.75 -0.5 0
-0.5 -0.5 0
-0.5 -1 0
-0.25 -1 0
-0.5 -0.75 0
-0.25 -0.75 0
-0.25 -1 0
0 -1 0
-0.25 -0.75 0
0 -0.75 0
-0.5 -0.75 0
-0.25 -0.75 0
-0.5 -0.5 0
-0.25 -0.5 0
-0.25 -0.75 0
0 -0.75 0
-0.25 -0.5 0
0 -0.5 0
-1 -0.5 0
-0.75 -0.5 0
-1 -0.25 0
-0.75 -0.25 0
-0.75 -0.5 0
-0.5 -0.5 0
-0.75 -0.25 0
-0.5 -0.25 0
-1 -0.25 0
-0.75 -0.25 0
-1 0 0
-0.75 0 0
-0.75 -0.25 0
-0.5 -0.25 0
-0.75 0 0
-0.5 0 0
-0.5 -0.5 0
-0.25 -0.5 0
-0.5 -0.25 0
-0.25 -0.25 0
-0.25 -0.5 0
0 -0.5 0
-0.25 -0.25 0
0 -0.25 0
-0.5 -0.25 0
-0.25 -0.25 0
-0.5 0 0
-0.25 0 0
-0.25 -0.25 0
0 -0.25 0
-0.25 0 0
0 0 0
0 -1 0
0.25 -1 0
0 -0.75 0
0.25 -0.75 0
-1 0 0
-0.75 0 0
-1 0.25 0
-0.75 0.25 0
-0.75 0 0
-0.5 0 0
-0.75 0.25 0
-0.5 0.25 0
-1 0.25 0
-0.75 0.25 0
-1 0.5 0
-0.75 0.5 0
-0.75 0.25 0
-0.5 0.25 0
-0.75 0.5 0
-0.5 0.5 0
-0.5 0 0
-0.25 0 0
-0.5 0.25 0
-0.25 0.25 0
-0.25 0 0
0 0 0
-0.25 0.25 0
0 0.25 0
-0.5 0.25 0
-0.25 0.25 0
-0.5 0.5 0
-0.25 0.5 0
-0.25 0.25 0
0 0.25 0
-0.25 0.5 0
0 0.5 0
-1 0.5 0
-0.75 0.5 0
-1 0.75 0
-0.75 0.75 0
-0.75 0.5 0
-0.5 0.5 0
-0.75 0.75 0
-0.5 0.75 0
-1 0.75 0
-0.75 0.75 0
-1 1 0
-0.75 1 0
-0.75 0.75 0
-0.5 0.75 0
-0.75 1 0
-0.5 1 0
-0.5 0.5 0
-0.25 0.5 0
-0.5 0.75 0
-0.25 0.75 0
-0.25 0.5 0
0 0.5 0
-0.25 0.75 0
0 0.75 0
-0.5 0.75 0
-0.25 0.75 0
-0.5 1 0
-0.25 1 0
-0.25 0.75 0
0 0.75 0
-0.25 1 0
0 1 0
0.25 -0.75 0
0.375 -0.75 0
0.25 -0.625 0
0.375 -0.625 0
0.5 -1 0
0.625 -1 0
0.5 -0.875 0
0.625 -0.875 0
0.625 -1 0
0.75 -1 0
0.625 -0.875 0
0.75 -0.875 0
0.5 -0.875 0
0.625 -0.875 0
0.5 -0.75 0
0.625 -0.75 0
0.625 -0.875 0
0.75 -0.875 0
0.625 -0.75 0
0.75 -0.75 0
0.75 -1 0
0.875 -1 0
0.75 -0.875 0
0.875 -0.875 0
0.875 -1 0
1 -1 0
0.875 -0.875 0
1 -0.875 0
0.75 -0.875 0
0.875 -0.875 0
0.75 -0.75 0
0.875 -0.75 0
0.875 -0.875 0
1 -0.875 0
0.875 -0.75 0
1 -0.75 0
0 -0.5 0
0.125 -0.5 0
0 -0.375 0
0.125 -0.375 0
0.125 -0.5 0
0.25 -0.5 0
0.125 -0.375 0
0.25 -0.375 0
0 -0.375 0
0.125 -0.375 0
0 -0.25 0
0.125 -0.25 0
0.125 -0.375 0
0.25 -0.375 0
0.125 -0.25 0
0.25 -0.25 0
0 -0.25 0
0.125 -0.25 0
0 -0.125 0
0.125 -0.125 0
0.125 -0.25 0
0.25 -0.25 0
0.125 -0.125 0
0.25 -0.125 0
0 -0.125 0
0.125 -0.125 0
0 0 0
0.125 0 0
0.125 -0.125 0
0.25 -0.125 0
0.125 0 0
0.25 0 0
0.25 -1 0
0.375 -1 0
0.25 -0.875 0
0.375 -0.875 0
0.375 -1 0
0.5 -1 0
0.375 -0.875 0
0.5 -0.875 0
0.25 -0.875 0
0.375 -0.875 0
0.25 -0.75 0
0.375 -0.75 0
0.375 -0.875 0
0.5 -0.875 0
0.375 -0.75 0
0.5 -0.75 0
0 -0.75 0
0.125 -0.75 0
0 -0.625 0
0.125 -0.625 0
0.125 -0.75 0
0.25 -0.75 0
0.125 -0.625 0
0.25 -0.625 0
0 -0.625 0
0.125 -0.625 0
0 -0.5 0
0.125 -0.5 0
0.125 -0.625 0
0.25 -0.625 0
0.125 -0.5 0
0.25 -0.5 0
0.8125 -0.4375 0
0.875 -0.4375 0
0.8125 -0.375 0
0.875 -0.375 0
0.8125 -0.375 0
0.875 -0.375 0
0.8125 -0.3125 0
0.875 -0.3125 0
0.875 -0.375 0
0.9375 -0.375 0
0.875 -0.3125 0
0.9375 -0.3125 0
0.875 -0.3125 0
0.9375 -0.3125 0
0.875 -0.25 0
0.9375 -0.25 0
0.5625 -0.1875 0
0.625 -0.1875 0
0.5625 -0.125 0
0.625 -0.125 0
0.625 -0.1875 0
0.6875 -0.1875 0
0.625 -0.125 0
0.6875 -0.125 0
0.625 -0.125 0
0.6875 -0.125 0
0.625 -0.0625 0
0.6875 -0.0625 0
0.6875 -0.125 0
0.75 -0.125 0
0.6875 -0.0625 0
0.75 -0.0625 0
0.8125 -0.1875 0
0.875 -0.1875 0
0.8125 -0.125 0
0.875 -0.125 0
0.875 -0.25 0
0.9375 -0.25 0
0.875 -0.1875 0
0.9375 -0.1875 0
0.875 -0.1875 0
0.9375 -0.1875 0
0.875 -0.125 0
0.9375 -0.125 0
0.75 -0.125 0
0.8125 -0.125 0
0.75 -0.0625 0
0.8125 -0.0625 0
0.8125 -0.125 0
0.875 -0.125 0
0.8125 -0.0625 0
0.875 -0.0625 0
0.5 -0.5 0
0.5625 -0.5 0
0.5 -0.4375 0
0.5625 -0.4375 0
0.9375 -0.0625 0
1 -0.0625 0
0.9375 0 0
1 0 0
0.625 -0.75 0
0.6875 -0.75 0
0.625 -0.6875 0
0.6875 -0.6875 0
0.6875 -0.75 0
0.75 -0.75 0
0.6875 -0.6875 0
0.75 -0.6875 0
0.625 -0.6875 0
0.6875 -0.6875 0
0.625 -0.625 0
0.6875 -0.625 0
0.6875 -0.6875 0
0.75 -0.6875 0
0.6875 -0.625 0
0.75 -0.625 0
0.6875 -0.625 0
0.75 -0.625 0
0.6875 -0.5625 0
0.75 -0.5625 0
0.625 -0.5625 0
0.6875 -0.5625 0
0.625 -0.5 0
0.6875 -0.5 0
0.6875 -0.5625 0
0.75 -0.5625 0
0.6875 -0.5 0
0.75 -0.5 0
0.75 -0.75 0
0.8125 -0.75 0
0.75 -0.6875 0
0.8125 -0.6875 0
0.8125 -0.75 0
0.875 -0.75 0
0.8125 -0.6875 0
0.875 -0.6875 0
0.75 -0.6875 0
0.8125 -0.6875 0
0.75 -0.625 0
0.8125 -0.625 0
0.8125 -0.6875 0
0.875 -0.6875 0
0.8125 -0.625 0
0.875 -0.625 0
0.75 -0.5625 0
0.8125 -0.5625 0
0.75 -0.5 0
0.8125 -0.5 0
0.25 -0.375 0
0.3125 -0.375 0
0.25 -0.3125 0
0.3125 -0.3125 0
0.3125 -0.375 0
0.375 -0.375 0
0.3125 -0.3125 0
0.375 -0.3125 0
0.25 -0.3125 0
0.3125 -0.3125 0
0.25 -0.25 0
0.3125 -0.25 0
0.3125 -0.3125 0
0.375 -0.3125 0
0.3125 -0.25 0
0.375 -0.25 0
0.4375 -0.375 0
0.5 -0.375 0
0.4375 -0.3125 0
0.5 -0.3125 0
0.375 -0.3125 0
0.4375 -0.3125 0
0.375 -0.25 0
0.4375 -0.25 0
0.4375 -0.3125 0
0.5 -0.3125 0
0.4375 -0.25 0
0.5 -0.25 0
0.25 -0.25 0
0.3125 -0.25 0
0.25 -0.1875 0
0.3125 -0.1875 0
0.3125 -0.25 0
0.375 -0.25 0
0.3125 -0.1875 0
0.375 -0.1875 0
0.25 -0.1875 0
0.3125 -0.1875 0
0.25 -0.125 0
0.3125 -0.125 0
0.3125 -0.1875 0
0.375 -0.1875 0
0.3125 -0.125 0
0.375 -0.125 0
0.375 -0.25 0
0.4375 -0.25 0
0.375 -0.1875 0
0.4375 -0.1875 0
0.4375 -0.25 0
0.5 -0.25 0
0.4375 -0.1875 0
0.5 -0.1875 0
0.5 -0.75 0
0.5625 -0.75 0
0.5 -0.6875 0
0.5625 -0.6875 0
0.5625 -0.75 0
0.625 -0.75 0
0.5625 -0.6875 0
0.625 -0.6875 0
0.5 -0.6875 0
0.5625 -0.6875 0
0.5 -0.625 0
0.5625 -0.625 0
0.5625 -0.6875 0
0.625 -0.6875 0
0.5625 -0.625 0
0.625 -0.625 0
0.5 -0.625 0
0.5625 -0.625 0
0.5 -0.5625 0
0.5625 -0.5625 0
0.5625 -0.625 0
0.625 -0.625 0
0.5625 -0.5625 0
0.625 -0.5625 0
0.5 -0.5625 0
0.5625 -0.5625 0
0.5 -0.5 0
0.5625 -0.5 0
0.5625 -0.5625 0
0.625 -0.5625 0
0.5625 -0.5 0
0.625 -0.5 0
0.875 -0.75 0
0.9375 -0.75 0
0.875 -0.6875 0
0.9375 -0.6875 0
0.9375 -0.75 0
1 -0.75 0
0.9375 -0.6875 0
1 -0.6875 0
0.875 -0.6875 0
0.9375 -0.6875 0
0.875 -0.625 0
0.9375 -0.625 0
0.9375 -0.6875 0
1 -0.6875 0
0.9375 -0.625 0
1 -0.625 0
0.875 -0.625 0
0.9375 -0.625 0
0.875 -0.5625 0
0.9375 -0.5625 0
0.9375 -0.625 0
1 -0.625 0
0.9375 -0.5625 0
1 -0.5625 0
0.875 -0.5625 0
0.9375 -0.5625 0
0.875 -0.5 0
0.9375 -0.5 0
0.9375 -0.5625 0
1 -0.5625 0
0.9375 -0.5 0
1 -0.5 0
0.25 -0.5 0
0.3125 -0.5 0
0.25 -0.4375 0
0.3125 -0.4375 0
0.3125 -0.5 0
0.375 -0.5 0
0.3125 -0.4375 0
0.375 -0.4375 0
0.25 -0.4375 0
0.3125 -0.4375 0
0.25 -0.375 0
0.3125 -0.375 0
0.3125 -0.4375 0
0.375 -0.4375 0
0.3125 -0.375 0
0.375 -0.375 0
0.375 -0.5 0
0.4375 -0.5 0
0.375 -0.4375 0
0.4375 -0.4375 0
0.4375 -0.5 0
0.5 -0.5 0
0.4375 -0.4375 0
0.5 -0.4375 0
0.375 -0.4375 0
0.4375 -0.4375 0
0.375 -0.375 0
0.4375 -0.375 0
0.4375 -0.4375 0
0.5 -0.4375 0
0.4375 -0.375 0
0.5 -0.375 0
0.25 -0.125 0
0.3125 -0.125 0
0.25 -0.0625 0
0.3125 -0.0625 0
0.3125 -0.125 0
0.375 -0.125 0
0.3125 -0.0625 0
0.375 -0.0625 0
0.25 -0.0625 0
0.3125 -0.0625 0
0.25 0 0
0.3125 0 0
0.3125 -0.0625 0
0.375 -0.0625 0
0.3125 0 0
0.375 0 0
0.375 -0.125 0
0.4375 -0.125 0
0.375 -0.0625 0
0.4375 -0.0625 0
0.4375 -0.125 0
0.5 -0.125 0
0.4375 -0.0625 0
0.5 -0.0625 0
0.375 -0.0625 0
0.4375 -0.0625 0
0.375 0 0
0.4375 0 0
0.4375 -0.0625 0
0.5 -0.0625 0
0.4375 0 0
0.5 0 0
0.375 -0.75 0
0.4375 -0.75 0
0.375 -0.6875 0
0.4375 -0.6875 0
0.4375 -0.75 0
0.5 -0.75 0
0.4375 -0.6875 0
0.5 -0.6875 0
0.375 -0.6875 0
0.4375 -0.6875 0
0.375 -0.625 0
0.4375 -0.625 0
0.4375 -0.6875 0
0.5 -0.6875 0
0.4375 -0.625 0
0.5 -0.625 0
0.25 -0.625 0
0.3125 -0.625 0
0.25 -0.5625 0
0.3125 -0.5625 0
0.3125 -0.625 0
0.375 -0.625 0
0.3125 -0.5625 0
0.375 -0.5625 0
0.25 -0.5625 0
0.3125 -0.5625 0
0.25 -0.5 0
0.3125 -0.5 0
0.3125 -0.5625 0
0.375 -0.5625 0
0.3125 -0.5 0
0.375 -0.5 0
0.375 -0.625 0
0.4375 -0.625 0
0.375 -0.5625 0
0.4375 -0.5625 0
0.4375 -0.625 0
0.5 -0.625 0
0.4375 -0.5625 0
0.5 -0.5625 0
0.375 -0.5625 0
0.4375 -0.5625 0
0.375 -0.5 0
0.4375 -0.5 0
0.4375 -0.5625 0
0.5 -0.5625 0
0.4375 -0.5 0
0.5 -0.5 0
0.75 -0.5 0
0.78125 -0.5 0
0.75 -0.46875 0
0.78125 -0.46875 0
0.78125 -0.5 0
0.8125 -0.5 0
0.78125 -0.46875 0
0.8125 -0.46875 0
0.75 -0.46875 0
0.78125 -0.46875 0
0.75 -0.4375 0
0.78125 -0.4375 0
0.78125 -0.46875 0
0.8125 -0.46875 0
0.78125 -0.4375 0
0.8125 -0.4375 0
0.8125 -0.5 0
0.84375 -0.5 0
0.8125 -0.46875 0
0.84375 -0.46875 0
0.84375 -0.5 0
0.875 -0.5 0
0.84375 -0.46875 0
0.875 -0.46875 0
0.8125 -0.46875 0
0.84375 -0.46875 0
0.8125 -0.4375 0
0.84375 -0.4375 0
0.84375 -0.46875 0
0.875 -0.46875 0
0.84375 -0.4375 0
0.875 -0.4375 0
0.75 -0.4375 0
0.78125 -0.4375 0
0.75 -0.40625 0
0.78125 -0.40625 0
0.78125 -0.4375 0
0.8125 -0.4375 0
0.78125 -0.40625 0
0.8125 -0.40625 0
0.75 -0.40625 0
0.78125 -0.40625 0
0.75 -0.375 0
0.78125 -0.375 0
0.78125 -0.40625 0
0.8125 -0.40625 0
0.78125 -0.375 0
0.8125 -0.375 0
0.75 -0.375 0
0.78125 -0.375 0
0.75 -0.34375 0
0.78125 -0.34375 0
0.78125 -0.375 0
0.8125 -0.375 0
0.78125 -0.34375 0
0.8125 -0.34375 0
0.75 -0.34375 0
0.78125 -0.34375 0
0.75 -0.3125 0
0.78125 -0.3125 0
0.78125 -0.34375 0
0.8125 -0.34375 0
0.78125 -0.3125 0
0.8125 -0.3125 0
0.75 -0.3125 0
0.78125 -0.3125 0
0.75 -0.28125 0
0.78125 -0.28125 0
0.78125 -0.3125 0
0.8125 -0.3125 0
0.78125 -0.28125 0
0.8125 -0.28125 0
0.75 -0.28125 0
0.78125 -0.28125 0
0.75 -0.25 0
0.78125 -0.25 0
0.78125 -0.28125 0
0.8125 -0.28125 0
0.78125 -0.25 0
0.8125 -0.25 0
0.8125 -0.3125 0
0.84375 -0.3125 0
0.8125 -0.28125 0
0.84375 -0.28125 0
0.84375 -0.3125 0
0.875 -0.3125 0
0.84375 -0.28125 0
0.875 -0.28125 0
0.8125 -0.28125 0
0.84375 -0.28125 0
0.8125 -0.25 0
0.84375 -0.25 0
0.84375 -0.28125 0
0.875 -0.28125 0
0.84375 -0.25 0
0.875 -0.25 0
0.9375 -0.375 0
0.96875 -0.375 0
0.9375 -0.34375 0
0.96875 -0.34375 0
0.96875 -0.375 0
1 -0.375 0
0.96875 -0.34375 0
1 -0.34375 0
0.9375 -0.34375 0
0.96875 -0.34375 0
0.9375 -0.3125 0
0.96875 -0.3125 0
0.96875 -0.34375 0
1 -0.34375 0
0.96875 -0.3125 0
1 -0.3125 0
0.9375 -0.3125 0
0.96875 -0.3125 0
[...]
POINT_DATA 1464
SCALARS U double 1
LOOKUP_TABLE default
0 0 0 3.24557e-07 0 0 3.24557e-07 5.33659e-07 0 3.24557e-07 0 7.63995e-07 3.24557e-07 5.33659e-07 7.63995e-07 1.51324e-06 0 0 5.33659e-07 -9.38034e-06 0 0 -9.38034e-06 1.40986e-05 5.33659e-07 -9.38034e-06 1.51324e-06 -2.69123e-05 -9.38034e-06 1.40986e-05 -2.69123e-05 9.0599e-05 0 7.63995e-07 0 7.54103e-07 7.63995e-07 1.51324e-06 7.54103e-07 7.49259e-07 0 7.54103e-07 0 4.27139e-07 7.54103e-07 7.49259e-07 4.27139e-07 -7.7344e-07 1.51324e-06 -2.69123e-05 7.49259e-07 -2.32712e-05 -2.69123e-05 9.0599e-05 -2.32712e-05 0.00010587 7.49259e-07 -2.32712e-05 -7.7344e-07 -1.38543e-06 -2.32712e-05 0.00010587 -1.38543e-06 0 0 0 1.40986e-05 0.000382958 0 4.27139e-07 0 6.93823e-09 4.27139e-07 -7.7344e-07 6.93823e-09 1.16073e-07 0 6.93823e-09 0 -3.439e-09 6.93823e-09 1.16073e-07 -3.439e-09 6.58884e-09 -7.7344e-07 -1.38543e-06 1.16073e-07 -2.97189e-07 -1.38543e-06 0 -2.97189e-07 0 1.16073e-07 -2.97189e-07 6.58884e-09 1.17377e-07 -2.97189e-07 0 1.17377e-07 0 0 -3.439e-09 0 -2.68415e-10 -3.439e-09 6.58884e-09 -2.68415e-10 -2.23968e-09 0 -2.68415e-10 0 0 -2.68415e-10 -2.23968e-09 0 0 6.58884e-09 1.17377e-07 -2.23968e-09 -1.68424e-08 1.17377e-07 0 -1.68424e-08 0 -2.23968e-09 -1.68424e-08 0 0 -1.68424e-08 0 0 0 0.000382958 0.000887215 0.00087889 0.00204832 0 0 0.00047575 0.00058728 0 0 0.00058728 0.000552884 0.00047575 0.00058728 0.00151388 0.0019702 0.00058728 0.000552884 0.0019702 0.00194282 0 0 0.000552884 0.000341898 0 0 0.000341898 0 0.000552884 0.000341898 0.00194282 0.00122452 0.000341898 0 0.00122452 0 9.0599e-05 0.000466075 9.82343e-05 0.000582593 0.000466075 0.0014996 0.000582593 0.00195594 9.82343e-05 0.000582593 0.00010587 0.000551141 0.000582593 0.00195594 0.000551141 0.00193173 0.00010587 0.000551141 5.29348e-05 0.000343162 0.000551141 0.00193173 0.000343162 0.00121815 5.29348e-05 0.000343162 0 0 0.000343162 0.00121815 0 0 0 0 0.000191479 0.000305198 0 0 0.000305198 0.00047575 0.000191479 0.000305198 0.000382958 0.000887215 0.000305198 0.00047575 0.000887215 0.00151388 1.40986e-05 0.000198528 5.23488e-05 0.000297117 0.000198528 0.000382958 0.000297117 0.00087889 5.23488e-05 0.000297117 9.0599e-05 0.000466075 0.000297117 0.00087889 0.000466075 0.0014996 0.0157453 0.0126601 0.018131 0.0145682 0.018131 0.0145682 0.0191622 0.0153758 0.0145682 0.00884997 0.0153758 0.00925676 0.0153758 0.00925676 0.0151719 0.00917008 0.0157442 0.0181306 0.0126592 0.0145679 0.0181306 0.0191622 0.0145679 0.0153758 0.0145679 0.0153758 0.00884986 0.00925678 0.0153758 0.015172 0.00925678 0.00917013 0.0173048 0.0139824 0.0139824 0.0114523 0.0151719 0.00917008 0.0139824 0.00850404 0.0139824 0.00850404 0.0114523 0.0071476 0.015172 0.0139824 0.00917013 0.00850406 0.0139824 0.0114523 0.00850406 0.00714761 0.00847794 0.0110103 0.0110099 0.0147318 0.00472112 0 0 0 0.0019702 0.00195651 0.00327408 0.00337617 0.00195651 0.00194282 0.00337617 0.00324436 0.00327408 0.00337617 0.00523712 0.00551484 0.00337617 0.00324436 0.00551484 0.00529571 0.00551484 0.00529571 0.00862687 0.00840877 0.00825746 0.00862687 0.0125681 0.0132377 0.00862687 0.00840877 0.0132377 0.0129475 0.00194282 0.00158367 0.00324436 0.00280876 0.00158367 0.00122452 0.00280876 0.00209423 0.00324436 0.00280876 0.00529571 0.00468514 0.00280876 0.00209423 0.00468514 0.00345849 0.00840877 0.00743677 0.0129475 0.0116815 0.00195594 0.00326521 0.00194384 0.00336845 0.00326521 0.00523298 0.00336845 0.00551191 0.00194384 0.00336845 0.00193173 0.00323296 0.00336845 0.00551191 0.00323296 0.00530005 0.00825598 0.0125678 0.00862685 0.0132378 0.00551191 0.00862685 0.00530005 0.008414 0.00862685 0.0132378 0.008414 0.0129421 0.00193173 0.00323296 0.00157494 0.00279425 0.00323296 0.00530005 0.00279425 0.00466595 0.00157494 0.00279425 0.00121815 0.00208764 0.00279425 0.00466595 0.00208764 0.00346201 0.00530005 0.008414 0.00466595 0.00741744 0.008414 0.0129421 0.00741744 0.0116708 0.00151388 0.00174204 0.00245434 0.00293105 0.00174204 0.0019702 0.00293105 0.00327408 0.00245434 0.00293105 0.00383322 0.00466018 0.00293105 0.00327408 0.00466018 0.00523712 0.00383322 0.00466018 0.0057993 0.00723482 0.00466018 0.00523712 0.00723482 0.00825746 0.0057993 0.00723482 0.00847794 0.0110103 0.00723482 0.00825746 0.0110103 0.0125681 0.00122452 0.000612259 0.00209423 0.00111113 0.000612259 0 0.00111113 0 0.00209423 0.00111113 0.00345849 0.00186475 0.00111113 0 0.00186475 0 0.00345849 0.00186475 0.00571458 0.00313339 0.00186475 0 0.00313339 0 0.00571458 0.00313339 0.00923901 0.00544059 0.00313339 0 0.00544059 0 0.0014996 0.00244577 0.00172777 0.00292188 0.00244577 0.00382911 0.00292188 0.00465558 0.00172777 0.00292188 0.00195594 0.00326521 0.00292188 0.00465558 0.00326521 0.00523298 0.00382911 0.00579794 0.00465558 0.00723308 0.00579794 0.00847794 0.00723308 0.0110099 0.00465558 0.00723308 0.00523298 0.00825598 0.00723308 0.0110099 0.00825598 0.0125678 0.00121815 0.00208764 0.000609075 0.00110965 0.00208764 0.00346201 0.00110965 0.00186596 0.000609075 0.00110965 0 0 0.00110965 0.00186596 0 0 0.00346201 0.00571685 0.00186596 0.00313402 0.00571685 0.00923657 0.00313402 0.00544064 0.00186596 0.00313402 0 0 0.00313402 0.00544064 0 0 0.000887215 0.00120055 0.00146777 0.00192249 0.00120055 0.00151388 0.00192249 0.00245434 0.00146777 0.00192249 0.00204832 0.00293046 0.00192249 0.00245434 0.00293046 0.00383322 0.00087889 0.00146361 0.00118924 0.00191558 0.00146361 0.00204832 0.00191558 0.00292774 0.00118924 0.00191558 0.0014996 0.00244577 0.00191558 0.00292774 0.00244577 0.00382911 0.00204832 0.00293046 0.00292774 0.00426215 0.00293046 0.00383322 0.00426215 0.0057993 0.00292774 0.00426215 0.00382911 0.00579794 0.00426215 0.0057993 0.00579794 0.00847794 0.0129475 0.0123145 0.015267 0.0146403 0.0123145 0.0116815 0.0146403 0.013865 0.015267 0.0146403 0.017315 0.0166273 0.0146403 0.013865 0.0166273 0.0157453 0.0116815 0.0105717 0.013865 0.0125743 0.0105717 0.00923901 0.0125743 0.0111173 0.013865 0.0125743 0.0157453 0.0142027 0.0125743 0.0111173 0.0142027 0.0126601 0.017315 0.0166273 0.0187144 0.0179721 0.0166273 0.0157453 0.0179721 0.0169382 0.0187144 0.0179721 0.0199081 0.0191273 0.0179721 0.0169382 0.0191273 0.018131 0.0199081 0.0191273 0.0205585 0.0197537 0.0191273 0.018131 0.0197537 0.0186466 0.0205585 0.0197537 0.0210183 0.0201959 0.0197537 0.0186466 0.0201959 0.0191622 0.0210183 0.0201959 0.0209544 0.0201354 0.0201959 0.0191622 0.0201354 0.0190889 0.0209544 0.0201354 0.0207 0.0198926 0.0201354 0.0190889 0.0198926 0.0188777 0.0191622 0.017269 0.0190889 0.017364 0.017269 0.0153758 0.017364 0.0152738 0.0190889 0.017364 0.0188777 0.0171911 0.017364 0.0152738 0.0171911 0.0151719 0.00884997 0.00475073 0.00905337 0.00489055 0.00475073 0 0.00489055 0 0.00905337 0.00489055 0.00925676 0.00498813 0.00489055 0 0.00498813 0 0.00925676 0.00498813 0.00921342 0.00498627 0.00498813 0 0.00498627 0 0.00921342 0.00498627 0.00917008 0.00494345 0.00498627 0 0.00494345 0 0.0129421 0.0152648 0.0123064 0.0146387 0.0152648 0.0173139 0.0146387 0.0166262 0.0123064 0.0146387 0.0116708 0.0138642 0.0146387 0.0166262 0.0138642 0.0157442 0.0173139 0.0187137 0.0166262 0.0179713 0.0187137 0.0199077 0.0179713 0.0191268 0.0166262 0.0179713 0.0157442 0.0169374 0.0179713 0.0191268 0.0169374 0.0181306 0.0116708 0.0138642 0.0105675 0.0125725 0.0138642 0.0157442 0.0125725 0.0142017 0.0105675 0.0125725 0.00923657 0.0111159 0.0125725 0.0142017 0.0111159 0.0126592 0.0199077 0.0205584 0.0191268 0.0197536 0.0205584 0.0210183 0.0197536 0.0201959 0.0191268 0.0197536 0.0181306 0.0186464 0.0197536 0.0201959 0.0186464 0.0191622 0.0210183 0.0209544 0.0201959 0.0201354 0.0209544 0.0207 0.0201354 0.0198926 0.0201959 0.0201354 0.0191622 0.019089 0.0201354 0.0198926 0.019089 0.0188778 0.0191622 0.019089 0.017269 0.0173641 0.019089 0.0188778 0.0173641 0.0171911 0.017269 0.0173641 0.0153758 0.0152739 0.0173641 0.0171911 0.0152739 0.015172 0.00884986 0.00905332 0.00475068 0.00489054 0.00905332 0.00925678 0.00489054 0.00498814 0.00475068 0.00489054 0 0 0.00489054 0.00498814 0 0 0.00925678 0.00921346 0.00498814 0.00498629 0.00921346 0.00917013 0.00498629 0.00494346 0.00498814 0.00498629 0 0 0.00498629 0.00494346 0 0 0.0207 0.0198926 0.0198926 0.0191347 0.0198926 0.0188777 0.0191347 0.0181713 0.0198926 0.0191347 0.0188778 0.0181713 0.0191347 0.0181713 0.0181713 0.0173048 0.0188777 0.0171911 0.0181713 0.0165593 0.0171911 0.0151719 0.0165593 0.0145772 0.0181713 0.0165593 0.0173048 0.0156436 0.0165593 0.0145772 0.0156436 0.0139824 0.0188778 0.0181713 0.0171911 0.0165593 0.0181713 0.0173048 0.0165593 0.0156436 0.0171911 0.0165593 0.015172 0.0145772 0.0165593 0.0156436 0.0145772 0.0139824 0.00917008 0.00494345 0.00883706 0.00479654 0.00494345 0 0.00479654 0 0.00883706 0.00479654 0.00850404 0.00460078 0.00479654 0 0.00460078 0 0.00850404 0.00460078 0.00782582 0.00426778 0.00460078 0 0.00426778 0 0.00782582 0.00426778 0.0071476 0.00388547 0.00426778 0 0.00388547 0 0.00917013 0.00883709 0.00494346 0.00479656 0.00883709 0.00850406 0.00479656 0.00460079 0.00494346 0.00479656 0 0 0.00479656 0.00460079 0 0 0.00850406 0.00782583 0.00460079 0.00426779 0.00782583 0.00714761 0.00426779 0.00388548 0.00460079 0.00426779 0 0 0.00426779 0.00388548 0 0 0.0110103 0.0117892 0.0128711 0.0139902 0.0117892 0.0125681 0.0139902 0.0148284 0.0128711 0.0139902 0.0147318 0.0157974 0.0139902 0.0148284 0.0157974 0.0167539 0.0110099 0.0128709 0.0117889 0.01399 0.0128709 0.0147318 0.01399 0.0157973 0.0117889 0.01399 0.0125678 0.0148282 0.01399 0.0157973 0.0148282 0.0167538 0.0147318 0.0157974 0.0157973 0.0170334 0.0157974 0.0167539 0.0170334 0.0180846 0.0157973 0.0170334 0.0167538 0.0180845 0.0170334 0.0180846 0.0180845 0.0192189 0.0125681 0.0129029 0.0148284 0.0152623 0.0129029 0.0132377 0.0152623 0.0155709 0.0148284 0.0152623 0.0167539 0.0172668 0.0152623 0.0155709 0.0172668 0.0176188 0.0132377 0.0130926 0.0155709 0.015491 0.0130926 0.0129475 0.015491 0.015267 0.0155709 0.015491 0.0176188 0.0175435 0.015491 0.015267 0.0175435 0.017315 0.0167539 0.0172668 0.0180846 0.0186457 0.0172668 0.0176188 0.0186457 0.0190352 0.0180846 0.0186457 0.0192189 0.0198198 0.0186457 0.0190352 0.0198198 0.0202423 0.0176188 0.0175435 0.0190352 0.018957 0.0175435 0.017315 0.018957 0.0187144 0.0190352 0.018957 0.0202423 0.0201645 0.018957 0.0187144 0.0201645 0.0199081 0.0125678 0.0148282 0.0129028 0.0152621 0.0148282 0.0167538 0.0152621 0.0172665 0.0129028 0.0152621 0.0132378 0.0155703 0.0152621 0.0172665 0.0155703 0.0176183 0.0167538 0.0180845 0.0172665 0.0186456 0.0180845 0.0192189 0.0186456 0.0198197 0.0172665 0.0186456 0.0176183 0.0190349 0.0186456 0.0198197 0.0190349 0.0202422 0.0132378 0.0155703 0.0130899 0.0154894 0.0155703 0.0176183 0.0154894 0.0175426 0.0130899 0.0154894 0.0129421 0.0152648 0.0154894 0.0175426 0.0152648 0.0173139 0.0176183 0.0190349 0.0175426 0.0189564 0.0190349 0.0202422 0.0189564 0.0201642 0.0175426 0.0189564 0.0173139 0.0187137 0.0189564 0.0201642 0.0187137 0.0199077 0.0192189 0.0198198 0.0198197 0.0204487 0.0198198 0.0202423 0.0204487 0.0208901 0.0198197 0.0204487 0.0202422 0.0208901 0.0204487 0.0208901 0.0208901 0.0213459 0.0202423 0.0201645 0.0208901 0.0208167 0.0201645 0.0199081 0.0208167 0.0205585 0.0208901 0.0208167 0.0213459 0.0212773 0.0208167 0.0205585 0.0212773 0.0210183 0.0202422 0.0208901 0.0201642 0.0208166 0.0208901 0.0213459 0.0208166 0.0212772 0.0201642 0.0208166 0.0199077 0.0205584 0.0208166 0.0212772 0.0205584 0.0210183 0.0213459 0.0212773 0.0212772 0.0212123 0.0212773 0.0210183 0.0212123 0.0209544 0.0212772 0.0212123 0.0210183 0.0209544 0.0212123 0.0209544 0.0209544 0.0207 0.00923901 0.0073398 0.0111173 0.00902891 0.0073398 0.00544059 0.00902891 0.00668352 0.0111173 0.00902891 0.0126601 0.0103338 0.00902891 0.00668352 0.0103338 0.00772722 0.00544059 0.00272029 0.00668352 0.00362406 0.00272029 0 0.00362406 0 0.00668352 0.00362406 0.00772722 0.00415714 0.00362406 0 0.00415714 0 0.0126601 0.0103338 0.0136141 0.0111231 0.0103338 0.00772722 0.0111231 0.00829991 0.0136141 0.0111231 0.0145682 0.0117091 0.0111231 0.00829991 0.0117091 0.00884997 0.00772722 0.00415714 0.00829991 0.00445879 0.00415714 0 0.00445879 0 0.00829991 0.00445879 0.00884997 0.00475073 0.00445879 0 0.00475073 0 0.00923657 0.0111159 0.00733861 0.00902808 0.0111159 0.0126592 0.00902808 0.0103332 0.00733861 0.00902808 0.00544064 0.00668311 0.00902808 0.0103332 0.00668311 0.00772688 0.0126592 0.0136135 0.0103332 0.0111227 0.0136135 0.0145679 0.0111227 0.0117089 0.0103332 0.0111227 0.00772688 0.00829967 0.0111227 0.0117089 0.00829967 0.00884986 0.00544064 0.00668311 0.00272032 0.00362393 0.00668311 0.00772688 0.00362393 0.004157 0.00272032 0.00362393 0 0 0.00362393 0.004157 0 0 0.00772688 0.00829967 0.004157 0.00445869 0.00829967 0.00884986 0.00445869 0.00475068 0.004157 0.00445869 0 0 0.00445869 0.00475068 0 0 0.0114523 0.00929996 0.00929996 0.00778634 0.00929996 0.0071476 0.00778634 0.00598665 0.00929996 0.00778634 0.00714761 0.00598666 0.00778634 0.00598665 0.00598666 0.00472112 0.0071476 0.00388547 0.00598665 0.00325069 0.00388547 0 0.00325069 0 0.00598665 0.00325069 0.00472112 0.00236056 0.00325069 0 0.00236056 0 0.00714761 0.00598666 0.00388548 0.0032507 0.00598666 0.00472112 0.0032507 0.00236056 0.00388548 0.0032507 0 0 0.0032507 0.00236056 0 0 0.00523712 0.00537598 0.00674729 0.00686878 0.00537598 0.00551484 0.00686878 0.00707085 0.00674729 0.00686878 0.00825746 0.00844217 0.00686878 0.00707085 0.00844217 0.00862687 0.00529571 0.00499042 0.00685224 0.0064054 0.00499042 0.00468514 0.0064054 0.00595345 0.00685224 0.0064054 0.00840877 0.00792277 0.0064054 0.00595345 0.00792277 0.00743677 0.00468514 0.00407182 0.00595345 0.00530111 0.00407182 0.00345849 0.00530111 0.00458654 0.00595345 0.00530111 0.00743677 0.00668884 0.00530111 0.00458654 0.00668884 0.00571458 0.00743677 0.00668884 0.00955912 0.00849084 0.00668884 0.00571458 0.00849084 0.0074768 0.00955912 0.00849084 0.0116815 0.0105717 0.00849084 0.0074768 0.0105717 0.00923901 0.00523298 0.00674448 0.00537245 0.00686659 0.00674448 0.00825598 0.00686659 0.00844141 0.00537245 0.00686659 0.00551191 0.00706938 0.00686659 0.00844141 0.00706938 0.00862685 0.00466595 0.00604169 0.00406398 0.00531916 0.00604169 0.00741744 0.00531916 0.00669489 0.00406398 0.00531916 0.00346201 0.00458943 0.00531916 0.00669489 0.00458943 0.00571685 0.00741744 0.00954411 0.00669489 0.00848005 0.00954411 0.0116708 0.00848005 0.0105675 0.00669489 0.00848005 0.00571685 0.00747671 0.00848005 0.0105675 0.00747671 0.00923657 
