# vtk DataFile Version 3.0
#This file was generated by the deal.II library on 2021/4/23 at 0:45:48
ASCII
DATASET UNSTRUCTURED_GRID

FIELD FieldData 2
CYCLE 1 1 int
219
TIME 1 1 double
0.438
POINTS 5556 double
-1 -1 0
-0.75 -1 0
-1 -0.75 0
-0.75 -0.75 0
-0.75 -1 0
-0.5 -1 0
-0.75 -0.75 0
-0.5 -0.75 0
-1 -0.75 0
-0.75 -0.75 0
-1 -0.5 0
-0.75 -0.5 0
-0.75 -0.75 0
-0.5 -0.75 0
-0.75 -0.5 0
-0.5 -0.5 0
-0.5 -1 0
-0.25 -1 0
-0.5 -0.75 0
-0.25 -0.75 0
-0.25 -1 0
0 -1 0
-0.25 -0.75 0
0 -0.75 0
-0.5 -0.75 0
-0.25 -0.75 0
-0.5 -0.5 0
-0.25 -0.5 0
-1 -0.5 0
-0.75 -0.5 0
-1 -0.25 0
-0.75 -0.25 0
-0.75 -0.5 0
-0.5 -0.5 0
-0.75 -0.25 0
-0.5 -0.25 0
-1 -0.25 0
-0.75 -0.25 0
-1 0 0
-0.75 0 0
-0.5 -0.5 0
-0.25 -0.5 0
-0.5 -0.25 0
-0.25 -0.25 0
-0.5 -0.25 0
-0.25 -0.25 0
-0.5 0 0
-0.25 0 0
-1 0.75 0
-0.75 0.75 0
-1 1 0
-0.75 1 0
-0.25 -0.75 0
-0.125 -0.75 0
-0.25 -0.625 0
-0.125 -0.625 0
-0.125 -0.75 0
0 -0.75 0
-0.125 -0.625 0
0 -0.625 0
-0.25 -0.625 0
-0.125 -0.625 0
-0.25 -0.5 0
-0.125 -0.5 0
-0.125 -0.625 0
0 -0.625 0
-0.125 -0.5 0
0 -0.5 0
-0.75 -0.25 0
-0.625 -0.25 0
-0.75 -0.125 0
-0.625 -0.125 0
-0.625 -0.25 0
-0.5 -0.25 0
-0.625 -0.125 0
-0.5 -0.125 0
-0.75 -0.125 0
-0.625 -0.125 0
-0.75 0 0
-0.625 0 0
-0.625 -0.125 0
-0.5 -0.125 0
-0.625 0 0
-0.5 0 0
0 -0.75 0
0.125 -0.75 0
0 -0.625 0
0.125 -0.625 0
-0.25 -0.5 0
-0.125 -0.5 0
-0.25 -0.375 0
-0.125 -0.375 0
-0.125 -0.5 0
0 -0.5 0
-0.125 -0.375 0
0 -0.375 0
-0.25 -0.375 0
-0.125 -0.375 0
-0.25 -0.25 0
-0.125 -0.25 0
-0.125 -0.375 0
0 -0.375 0
-0.125 -0.25 0
0 -0.25 0
0 -1 0
0.125 -1 0
0 -0.875 0
0.125 -0.875 0
0.125 -1 0
0.25 -1 0
0.125 -0.875 0
0.25 -0.875 0
0 -0.875 0
0.125 -0.875 0
0 -0.75 0
0.125 -0.75 0
0.125 -0.875 0
0.25 -0.875 0
0.125 -0.75 0
0.25 -0.75 0
-1 0 0
-0.875 0 0
-1 0.125 0
-0.875 0.125 0
-0.875 0 0
-0.75 0 0
-0.875 0.125 0
-0.75 0.125 0
-1 0.125 0
-0.875 0.125 0
-1 0.25 0
-0.875 0.25 0
-0.875 0.125 0
-0.75 0.125 0
-0.875 0.25 0
-0.75 0.25 0
-0.75 0 0
-0.625 0 0
-0.75 0.125 0
-0.625 0.125 0
-0.625 0 0
-0.5 0 0
-0.625 0.125 0
-0.5 0.125 0
-0.75 0.125 0
-0.625 0.125 0
-0.75 0.25 0
-0.625 0.25 0
-0.625 0.125 0
-0.5 0.125 0
-0.625 0.25 0
-0.5 0.25 0
-0.5 0 0
-0.375 0 0
-0.5 0.125 0
-0.375 0.125 0
-0.375 0 0
-0.25 0 0
-0.375 0.125 0
-0.25 0.125 0
0.25 -1 0
0.375 -1 0
0.25 -0.875 0
0.375 -0.875 0
-0.25 -0.25 0
-0.125 -0.25 0
-0.25 -0.125 0
-0.125 -0.125 0
-0.125 -0.25 0
0 -0.25 0
-0.125 -0.125 0
0 -0.125 0
-0.25 -0.125 0
-0.125 -0.125 0
-0.25 0 0
-0.125 0 0
-0.125 -0.125 0
0 -0.125 0
-0.125 0 0
0 0 0
-1 0.25 0
-0.875 0.25 0
-1 0.375 0
-0.875 0.375 0
-0.875 0.25 0
-0.75 0.25 0
-0.875 0.375 0
-0.75 0.375 0
-1 0.375 0
-0.875 0.375 0
-1 0.5 0
-0.875 0.5 0
-0.875 0.375 0
-0.75 0.375 0
-0.875 0.5 0
-0.75 0.5 0
0.875 -1 0
1 -1 0
0.875 -0.875 0
1 -0.875 0
-0.625 0.375 0
-0.5 0.375 0
-0.625 0.5 0
-0.5 0.5 0
-0.25 0 0
-0.125 0 0
-0.25 0.125 0
-0.125 0.125 0
-0.125 0 0
0 0 0
-0.125 0.125 0
0 0.125 0
-0.25 0.125 0
-0.125 0.125 0
-0.25 0.25 0
-0.125 0.25 0
-0.125 0.125 0
0 0.125 0
-0.125 0.25 0
0 0.25 0
-1 0.5 0
-0.875 0.5 0
-1 0.625 0
-0.875 0.625 0
-0.875 0.5 0
-0.75 0.5 0
-0.875 0.625 0
-0.75 0.625 0
-1 0.625 0
-0.875 0.625 0
-1 0.75 0
-0.875 0.75 0
-0.875 0.625 0
-0.75 0.625 0
-0.875 0.75 0
-0.75 0.75 0
0 -0.125 0
0.125 -0.125 0
0 0 0
0.125 0 0
-0.25 0.25 0
-0.125 0.25 0
-0.25 0.375 0
-0.125 0.375 0
-0.125 0.25 0
0 0.25 0
-0.125 0.375 0
0 0.375 0
-0.25 0.375 0
-0.125 0.375 0
-0.25 0.5 0
-0.125 0.5 0
-0.125 0.375 0
0 0.375 0
-0.125 0.5 0
0 0.5 0
-0.5 0.375 0
-0.375 0.375 0
-0.5 0.5 0
-0.375 0.5 0
-0.375 0.375 0
-0.25 0.375 0
-0.375 0.5 0
-0.25 0.5 0
-0.25 0.75 0
-0.125 0.75 0
-0.25 0.875 0
-0.125 0.875 0
-0.125 0.75 0
0 0.75 0
-0.125 0.875 0
0 0.875 0
-0.25 0.875 0
-0.125 0.875 0
-0.25 1 0
-0.125 1 0
-0.125 0.875 0
0 0.875 0
-0.125 1 0
0 1 0
-0.625 0.5 0
-0.5 0.5 0
-0.625 0.625 0
-0.5 0.625 0
-0.625 0.625 0
-0.5 0.625 0
-0.625 0.75 0
-0.5 0.75 0
-0.75 0.75 0
-0.625 0.75 0
-0.75 0.875 0
-0.625 0.875 0
-0.625 0.75 0
-0.5 0.75 0
-0.625 0.875 0
-0.5 0.875 0
-0.75 0.875 0
-0.625 0.875 0
-0.75 1 0
-0.625 1 0
-0.625 0.875 0
-0.5 0.875 0
-0.625 1 0
-0.5 1 0
-0.5 0.5 0
-0.375 0.5 0
-0.5 0.625 0
-0.375 0.625 0
-0.375 0.5 0
-0.25 0.5 0
-0.375 0.625 0
-0.25 0.625 0
-0.5 0.625 0
-0.375 0.625 0
-0.5 0.75 0
-0.375 0.75 0
-0.375 0.625 0
-0.25 0.625 0
-0.375 0.75 0
-0.25 0.75 0
-0.25 0.5 0
-0.125 0.5 0
-0.25 0.625 0
-0.125 0.625 0
-0.125 0.5 0
0 0.5 0
-0.125 0.625 0
0 0.625 0
-0.25 0.625 0
-0.125 0.625 0
-0.25 0.75 0
-0.125 0.75 0
-0.125 0.625 0
0 0.625 0
-0.125 0.75 0
0 0.75 0
-0.5 0.75 0
-0.375 0.75 0
-0.5 0.875 0
-0.375 0.875 0
-0.375 0.75 0
-0.25 0.75 0
-0.375 0.875 0
-0.25 0.875 0
-0.5 0.875 0
-0.375 0.875 0
-0.5 1 0
-0.375 1 0
-0.375 0.875 0
-0.25 0.875 0
-0.375 1 0
-0.25 1 0
0.125 -0.5 0
0.1875 -0.5 0
0.125 -0.4375 0
0.1875 -0.4375 0
0.125 -0.75 0
0.1875 -0.75 0
0.125 -0.6875 0
0.1875 -0.6875 0
0.1875 -0.75 0
0.25 -0.75 0
0.1875 -0.6875 0
0.25 -0.6875 0
0.125 -0.6875 0
0.1875 -0.6875 0
0.125 -0.625 0
0.1875 -0.625 0
0.1875 -0.6875 0
0.25 -0.6875 0
0.1875 -0.625 0
0.25 -0.625 0
0.5 -0.875 0
0.5625 -0.875 0
0.5 -0.8125 0
0.5625 -0.8125 0
0.5625 -0.875 0
0.625 -0.875 0
0.5625 -0.8125 0
0.625 -0.8125 0
0.8125 -0.875 0
0.875 -0.875 0
0.8125 -0.8125 0
0.875 -0.8125 0
0 -0.625 0
0.0625 -0.625 0
0 -0.5625 0
0.0625 -0.5625 0
0.0625 -0.625 0
0.125 -0.625 0
0.0625 -0.5625 0
0.125 -0.5625 0
0 -0.5625 0
0.0625 -0.5625 0
0 -0.5 0
0.0625 -0.5 0
0.0625 -0.5625 0
0.125 -0.5625 0
0.0625 -0.5 0
0.125 -0.5 0
0.125 -0.625 0
0.1875 -0.625 0
0.125 -0.5625 0
0.1875 -0.5625 0
0.1875 -0.625 0
0.25 -0.625 0
0.1875 -0.5625 0
0.25 -0.5625 0
0.125 -0.5625 0
0.1875 -0.5625 0
0.125 -0.5 0
0.1875 -0.5 0
0.1875 -0.5625 0
0.25 -0.5625 0
0.1875 -0.5 0
0.25 -0.5 0
0 -0.5 0
0.0625 -0.5 0
0 -0.4375 0
0.0625 -0.4375 0
0.0625 -0.5 0
0.125 -0.5 0
0.0625 -0.4375 0
0.125 -0.4375 0
0 -0.4375 0
0.0625 -0.4375 0
0 -0.375 0
0.0625 -0.375 0
0.0625 -0.4375 0
0.125 -0.4375 0
0.0625 -0.375 0
0.125 -0.375 0
0 -0.375 0
0.0625 -0.375 0
0 -0.3125 0
0.0625 -0.3125 0
0.0625 -0.375 0
0.125 -0.375 0
0.0625 -0.3125 0
0.125 -0.3125 0
0 -0.3125 0
0.0625 -0.3125 0
0 -0.25 0
0.0625 -0.25 0
0.0625 -0.3125 0
0.125 -0.3125 0
0.0625 -0.25 0
0.125 -0.25 0
-0.5 0.125 0
-0.4375 0.125 0
-0.5 0.1875 0
-0.4375 0.1875 0
-0.4375 0.125 0
-0.375 0.125 0
-0.4375 0.1875 0
-0.375 0.1875 0
-0.5 0.1875 0
-0.4375 0.1875 0
-0.5 0.25 0
-0.4375 0.25 0
-0.4375 0.1875 0
-0.375 0.1875 0
-0.4375 0.25 0
-0.375 0.25 0
-0.375 0.125 0
-0.3125 0.125 0
-0.375 0.1875 0
-0.3125 0.1875 0
-0.3125 0.125 0
-0.25 0.125 0
-0.3125 0.1875 0
-0.25 0.1875 0
-0.375 0.1875 0
-0.3125 0.1875 0
-0.375 0.25 0
-0.3125 0.25 0
-0.3125 0.1875 0
-0.25 0.1875 0
-0.3125 0.25 0
-0.25 0.25 0
0.375 -1 0
0.4375 -1 0
0.375 -0.9375 0
0.4375 -0.9375 0
0.4375 -1 0
0.5 -1 0
0.4375 -0.9375 0
0.5 -0.9375 0
0.375 -0.9375 0
0.4375 -0.9375 0
0.375 -0.875 0
0.4375 -0.875 0
0.4375 -0.9375 0
0.5 -0.9375 0
0.4375 -0.875 0
0.5 -0.875 0
0.25 -0.875 0
0.3125 -0.875 0
0.25 -0.8125 0
0.3125 -0.8125 0
0.3125 -0.875 0
0.375 -0.875 0
0.3125 -0.8125 0
0.375 -0.8125 0
0.25 -0.8125 0
0.3125 -0.8125 0
0.25 -0.75 0
0.3125 -0.75 0
0.3125 -0.8125 0
0.375 -0.8125 0
0.3125 -0.75 0
0.375 -0.75 0
0.375 -0.875 0
0.4375 -0.875 0
0.375 -0.8125 0
0.4375 -0.8125 0
0.4375 -0.875 0
0.5 -0.875 0
0.4375 -0.8125 0
0.5 -0.8125 0
0.375 -0.8125 0
0.4375 -0.8125 0
0.375 -0.75 0
0.4375 -0.75 0
0.4375 -0.8125 0
0.5 -0.8125 0
0.4375 -0.75 0
0.5 -0.75 0
0.25 -0.75 0
0.3125 -0.75 0
0.25 -0.6875 0
0.3125 -0.6875 0
0.3125 -0.75 0
0.375 -0.75 0
0.3125 -0.6875 0
0.375 -0.6875 0
0.25 -0.6875 0
0.3125 -0.6875 0
0.25 -0.625 0
0.3125 -0.625 0
0.3125 -0.6875 0
0.375 -0.6875 0
0.3125 -0.625 0
0.375 -0.625 0
0.5 -1 0
0.5625 -1 0
0.5 -0.9375 0
0.5625 -0.9375 0
0.5625 -1 0
0.625 -1 0
0.5625 -0.9375 0
0.625 -0.9375 0
0.5 -0.9375 0
0.5625 -0.9375 0
0.5 -0.875 0
0.5625 -0.875 0
0.5625 -0.9375 0
0.625 -0.9375 0
0.5625 -0.875 0
0.625 -0.875 0
0.625 -1 0
0.6875 -1 0
0.625 -0.9375 0
0.6875 -0.9375 0
0.6875 -1 0
0.75 -1 0
0.6875 -0.9375 0
0.75 -0.9375 0
0.625 -0.9375 0
0.6875 -0.9375 0
0.625 -0.875 0
0.6875 -0.875 0
0.6875 -0.9375 0
0.75 -0.9375 0
0.6875 -0.875 0
0.75 -0.875 0
0.75 -1 0
0.8125 -1 0
0.75 -0.9375 0
0.8125 -0.9375 0
0.8125 -1 0
0.875 -1 0
0.8125 -0.9375 0
0.875 -0.9375 0
0.75 -0.9375 0
0.8125 -0.9375 0
0.75 -0.875 0
0.8125 -0.875 0
0.8125 -0.9375 0
0.875 -0.9375 0
0.8125 -0.875 0
0.875 -0.875 0
0.875 -0.875 0
0.9375 -0.875 0
0.875 -0.8125 0
0.9375 -0.8125 0
0.9375 -0.875 0
1 -0.875 0
0.9375 -0.8125 0
1 -0.8125 0
0.875 -0.8125 0
0.9375 -0.8125 0
0.875 -0.75 0
0.9375 -0.75 0
0.9375 -0.8125 0
1 -0.8125 0
0.9375 -0.75 0
1 -0.75 0
-0.75 0.25 0
-0.6875 0.25 0
-0.75 0.3125 0
-0.6875 0.3125 0
-0.6875 0.25 0
-0.625 0.25 0
-0.6875 0.3125 0
-0.625 0.3125 0
-0.75 0.3125 0
-0.6875 0.3125 0
-0.75 0.375 0
-0.6875 0.375 0
-0.6875 0.3125 0
-0.625 0.3125 0
-0.6875 0.375 0
-0.625 0.375 0
-0.625 0.25 0
-0.5625 0.25 0
-0.625 0.3125 0
-0.5625 0.3125 0
-0.5625 0.25 0
-0.5 0.25 0
-0.5625 0.3125 0
-0.5 0.3125 0
-0.625 0.3125 0
-0.5625 0.3125 0
-0.625 0.375 0
-0.5625 0.375 0
-0.5625 0.3125 0
-0.5 0.3125 0
-0.5625 0.375 0
-0.5 0.375 0
-0.75 0.375 0
-0.6875 0.375 0
-0.75 0.4375 0
-0.6875 0.4375 0
-0.6875 0.375 0
-0.625 0.375 0
-0.6875 0.4375 0
-0.625 0.4375 0
-0.75 0.4375 0
-0.6875 0.4375 0
-0.75 0.5 0
-0.6875 0.5 0
-0.6875 0.4375 0
-0.625 0.4375 0
-0.6875 0.5 0
-0.625 0.5 0
0 -0.25 0
0.0625 -0.25 0
0 -0.1875 0
0.0625 -0.1875 0
0.0625 -0.25 0
0.125 -0.25 0
0.0625 -0.1875 0
0.125 -0.1875 0
0 -0.1875 0
0.0625 -0.1875 0
0 -0.125 0
0.0625 -0.125 0
0.0625 -0.1875 0
0.125 -0.1875 0
0.0625 -0.125 0
0.125 -0.125 0
0.125 -0.125 0
0.1875 -0.125 0
0.125 -0.0625 0
0.1875 -0.0625 0
0.1875 -0.125 0
0.25 -0.125 0
0.1875 -0.0625 0
0.25 -0.0625 0
0.125 -0.0625 0
0.1875 -0.0625 0
0.125 0 0
0.1875 0 0
0.1875 -0.0625 0
0.25 -0.0625 0
0.1875 0 0
0.25 0 0
-0.5 0.25 0
-0.4375 0.25 0
-0.5 0.3125 0
-0.4375 0.3125 0
-0.4375 0.25 0
-0.375 0.25 0
-0.4375 0.3125 0
-0.375 0.3125 0
-0.5 0.3125 0
-0.4375 0.3125 0
-0.5 0.375 0
-0.4375 0.375 0
-0.4375 0.3125 0
-0.375 0.3125 0
-0.4375 0.375 0
-0.375 0.375 0
[...]
POINT_DATA 5556
SCALARS U double 1
LOOKUP_TABLE default
0 0 0 9.69791e-05 0 0 9.69791e-05 0.000183324 0 9.69791e-05 0 0.00021933 9.69791e-05 0.000183324 0.00021933 0.000383086 0 0 0.000183324 0.000248303 0 0 0.000248303 0.000342952 0.000183324 0.000248303 0.000383086 0.000472182 0 0.00021933 0 0.000420846 0.00021933 0.000383086 0.000420846 0.000672278 0 0.000420846 0 0.000732479 0.000383086 0.000472182 0.000672278 0.000664279 0.000672278 0.000664279 0.00112197 0.00091175 0 0.000864874 0 0 0.000248303 0.000295628 0.000360243 0.000410245 0.000295628 0.000342952 0.000410245 0.000507896 0.000360243 0.000410245 0.000472182 0.000513324 0.000410245 0.000507896 0.000513324 0.000650413 0.000420846 0.000546562 0.000576663 0.000763658 0.000546562 0.000672278 0.000763658 0.000897122 0.000576663 0.000763658 0.000732479 0.000991213 0.000763658 0.000897122 0.000991213 0.00112197 0.000342952 0.00048162 0.000507896 0.00077053 0.000472182 0.000513324 0.000568231 0.000586834 0.000513324 0.000650413 0.000586834 0.000721122 0.000568231 0.000586834 0.000664279 0.000617619 0.000586834 0.000721122 0.000617619 0.000685395 0 0 0.000171476 0.000230205 0 0 0.000230205 0.000330407 0.000171476 0.000230205 0.000342952 0.00048162 0.000230205 0.000330407 0.00048162 0.000770988 0 0.00036624 0 0.000485937 0.00036624 0.000732479 0.000485937 0.000918259 0 0.000485937 0 0.000581409 0.000485937 0.000918259 0.000581409 0.0010966 0.000732479 0.000991213 0.000918259 0.0012354 0.000991213 0.00112197 0.0012354 0.00137447 0.000918259 0.0012354 0.0010966 0.00146769 0.0012354 0.00137447 0.00146769 0.00162653 0.00112197 0.00101686 0.00137447 0.00132001 0.00101686 0.00091175 0.00132001 0.00104954 0 0 0.000330407 0.00049583 0.000664279 0.000617619 0.000788015 0.000588742 0.000617619 0.000685395 0.000588742 0.000483477 0.000788015 0.000588742 0.00091175 0.0005708 0.000588742 0.000483477 0.0005708 0 0 0.000581409 0 0.000646658 0.000581409 0.0010966 0.000646658 0.0012135 0 0.000646658 0 0.000657344 0.000646658 0.0012135 0.000657344 0.00123314 0 0 0.000459424 0 0.00162278 0.00180586 0.00164693 0.00182791 0.00091175 0.0005708 0.00104954 0.000590189 0.0005708 0 0.000590189 0 0.00104954 0.000590189 0.00121276 0.000671161 0.000590189 0 0.000671161 0 0 0.000657344 0 0.000594058 0.000657344 0.00123314 0.000594058 0.00111376 0 0.000594058 0 0.000432437 0.000594058 0.00111376 0.000432437 0.000864874 0.000483477 0.00066925 0 0 0.00121276 0.000671161 0.00133895 0.000734372 0.000671161 0 0.000734372 0 0.00133895 0.000734372 0.00135203 0.000741848 0.000734372 0 0.000741848 0 0.00180586 0.00171248 0.00182791 0.00173075 0.00171248 0.00133895 0.00173075 0.00135203 0.000930232 0.000510173 0.000504461 0.000276651 0.000510173 0 0.000276651 0 0.000504461 0.000276651 0 0 0.000276651 0 0 0 0.00164693 0.00182791 0.00148914 0.00165108 0.00148914 0.00165108 0.00113398 0.00125856 0.000864874 0.00113398 0.000432437 0.00061286 0.00113398 0.00125856 0.00061286 0.000682357 0.000432437 0.00061286 0 0 0.00061286 0.000682357 0 0 0.00182791 0.00173075 0.00165108 0.00156261 0.00173075 0.00135203 0.00156261 0.00122025 0.00165108 0.00156261 0.00125856 0.00119132 0.00156261 0.00122025 0.00119132 0.000930232 0.00135203 0.000741848 0.00122025 0.000669284 0.000741848 0 0.000669284 0 0.00122025 0.000669284 0.000930232 0.000510173 0.000669284 0 0.000510173 0 0.00125856 0.00119132 0.000682357 0.000646025 0.00119132 0.000930232 0.000646025 0.000504461 0.000682357 0.000646025 0 0 0.000646025 0.000504461 0 0 0.00105573 0.00148323 0.00115924 0.00165334 0.00048162 0.000626304 0.000626075 0.000810424 0.000626304 0.000770988 0.000810424 0.00107189 0.000626075 0.000810424 0.00077053 0.0010318 0.000810424 0.00107189 0.0010318 0.00140712 0.000693266 0.000775116 0.00121353 0.00136864 0.000775116 0.000820996 0.00136864 0.00145956 0.000642793 0.000459424 0.00116257 0.000846652 0.000507896 0.000639213 0.000579154 0.000715718 0.000639213 0.00077053 0.000715718 0.000925276 0.000579154 0.000715718 0.000650413 0.000799994 0.000715718 0.000925276 0.000799994 0.00105573 0.00077053 0.0010318 0.000925276 0.00126173 0.0010318 0.00140712 0.00126173 0.0017752 0.000925276 0.00126173 0.00105573 0.00148323 0.00126173 0.0017752 0.00148323 0.00213552 0.000650413 0.000799994 0.000685767 0.000863388 0.000799994 0.00105573 0.000863388 0.00115924 0.000685767 0.000863388 0.000721122 0.000896316 0.000863388 0.00115924 0.000896316 0.00121928 0.000721122 0.000896316 0.000703258 0.000887564 0.000896316 0.00121928 0.000887564 0.00120471 0.000703258 0.000887564 0.000685395 0.000825255 0.000887564 0.00120471 0.000825255 0.0011202 0.00137447 0.00134724 0.0015005 0.00149362 0.00134724 0.00132001 0.00149362 0.00142822 0.0015005 0.00149362 0.00162653 0.00161206 0.00149362 0.00142822 0.00161206 0.00154021 0.00132001 0.00118478 0.00142822 0.00130669 0.00118478 0.00104954 0.00130669 0.00113115 0.00142822 0.00130669 0.00154021 0.00140494 0.00130669 0.00113115 0.00140494 0.00121276 0 0 0.000247915 0.000277157 0 0 0.000277157 0.000316352 0.000247915 0.000277157 0.00049583 0.000598939 0.000277157 0.000316352 0.000598939 0.000693266 0.000330407 0.000413119 0.000550698 0.000675538 0.000413119 0.00049583 0.000675538 0.000841611 0.000550698 0.000675538 0.000770988 0.00100865 0.000675538 0.000841611 0.00100865 0.00128983 0.00049583 0.000598939 0.000841611 0.00102568 0.000598939 0.000693266 0.00102568 0.00121353 0.000841611 0.00102568 0.00128983 0.00161373 0.00102568 0.00121353 0.00161373 0.00193906 0.000770988 0.00100865 0.00107189 0.00142981 0.00100865 0.00128983 0.00142981 0.00189124 0.00107189 0.00142981 0.00140712 0.00194554 0.00142981 0.00189124 0.00194554 0.00264561 0 0 0.000316352 0.000347404 0 0 0.000347404 0.000366855 0.000316352 0.000347404 0.000693266 0.000775116 0.000347404 0.000366855 0.000775116 0.000820996 0 0 0.000366855 0.000366955 0 0 0.000366955 0.000339511 0.000366855 0.000366955 0.000820996 0.000821469 0.000366955 0.000339511 0.000821469 0.000766317 0 0 0.000339511 0.000286638 0 0 0.000286638 0.000229712 0.000339511 0.000286638 0.000766317 0.000642793 0.000286638 0.000229712 0.000642793 0.000459424 0.000459424 0.000229712 0.000846652 0.000445167 0.000229712 0 0.000445167 0 0.000846652 0.000445167 0.00144892 0.000768642 0.000445167 0 0.000768642 0 0.0010966 0.00128214 0.00115505 0.00137698 0.00128214 0.00146769 0.00137698 0.00154644 0.00115505 0.00137698 0.0012135 0.0014354 0.00137698 0.00154644 0.0014354 0.00162278 0.00146769 0.00154711 0.00154644 0.00166183 0.00154711 0.00162653 0.00166183 0.00171784 0.00154644 0.00166183 0.00162278 0.00171432 0.00166183 0.00171784 0.00171432 0.00180586 0.0012135 0.0014354 0.00122332 0.00146349 0.0014354 0.00162278 0.00146349 0.00163486 0.00122332 0.00146349 0.00123314 0.00145441 0.00146349 0.00163486 0.00145441 0.00164693 0.000685395 0.000825255 0.000584436 0.000711634 0.000825255 0.0011202 0.000711634 0.000948758 0.000584436 0.000711634 0.000483477 0.000576364 0.000711634 0.000948758 0.000576364 0.00066925 0.00066925 0.000998446 0.000334625 0.000524404 0.000998446 0.00156751 0.000524404 0.000829047 0.000334625 0.000524404 0 0 0.000524404 0.000829047 0 0 0.00162653 0.00161206 0.00171784 0.00170886 0.00161206 0.00154021 0.00170886 0.00163085 0.00171784 0.00170886 0.00180586 0.00175917 0.00170886 0.00163085 0.00175917 0.00171248 0.00154021 0.00140494 0.00163085 0.00148619 0.00140494 0.00121276 0.00148619 0.00127586 0.00163085 0.00148619 0.00171248 0.00152572 0.00148619 0.00127586 0.00152572 0.00133895 0.00123314 0.00145441 0.00117345 0.00140623 0.00145441 0.00164693 0.00140623 0.00156803 0.00117345 0.00140623 0.00111376 0.00131411 0.00140623 0.00156803 0.00131411 0.00148914 0.00111376 0.00131411 0.000989315 0.0011816 0.00131411 0.00148914 0.0011816 0.00131156 0.000989315 0.0011816 0.000864874 0.000999429 0.0011816 0.00131156 0.000999429 0.00113398 0.000768642 0 0.00127495 0 0.00140712 0.00194554 0.0017752 0.00252656 0.00128983 0.00161373 0.00189124 0.00242786 0.0024142 0.00246405 0.00386448 0.00397656 0.00246405 0.00232297 0.00397656 0.00378287 0.00232297 0.00198695 0.00378287 0.0032605 0.00198695 0.00144892 0.0032605 0.00239253 0.00244678 0.00367154 0.00264661 0.00403848 0.00264661 0.00403848 0.00268412 0.00414119 0.00268412 0.00414119 0.00252281 0.00393237 0.00252281 0.00393237 0.00215312 0.00338414 0.00215312 0.00338414 0.00156751 0.00248108 0.000829047 0.0013209 0 0 0.00448607 0.00499043 0.00548848 0.00603431 0.00499043 0.00536873 0.00603431 0.00664626 0.00548848 0.00603431 0.00656052 0.00739605 0.00207904 0.00105532 0.00270151 0.00135198 0.00105532 0 0.00135198 0 0.00270151 0.00135198 0.00342147 0.00176272 0.00135198 0 0.00176272 0 0.00176272 0 0.00226611 0 0.0045637 0.00554365 0.00508023 0.0061015 0.00554365 0.0065948 0.0061015 0.00744377 0.00508023 0.0061015 0.00546734 0.00672464 0.00495722 0.00576153 0.00577944 0.00679379 0.00576153 0.00656052 0.00679379 0.00786149 0.00577944 0.00679379 0.0065948 0.00787717 0.00679379 0.00786149 0.00787717 0.00934208 0.00211305 0.00273066 0.0010724 0.00136663 0.00273066 0.0034461 0.00136663 0.00177515 0.0010724 0.00136663 0 0 0.00136663 0.00177515 0 0 0.00177515 0.00227656 0 0 0.00300076 0.00327132 0.00371736 0.00404292 0.00327132 0.00352241 0.00404292 0.00436401 0.00371736 0.00404292 0.00448607 0.00499043 0.00404292 0.00436401 0.00499043 0.00536873 0.00352241 0.00371435 0.00436401 0.00463256 0.00371435 0.00386448 0.00463256 0.0048096 0.00148323 0.00180937 0.00156828 0.00191293 0.00180937 0.00213552 0.00191293 0.00230685 0.00156828 0.00191293 0.00165334 0.00201762 0.00191293 0.00230685 0.00201762 0.00244678 0.00115924 0.00140629 0.00118926 0.00143846 0.00140629 0.00165334 0.00143846 0.00171466 0.00118926 0.00143846 0.00121928 0.00146676 0.00143846 0.00171466 0.00146676 0.00175379 0.00386448 0.00392052 0.0048096 0.00493433 0.00392052 0.00397656 0.00493433 0.00495038 0.00397656 0.00387971 0.00495038 0.00490295 0.00387971 0.00378287 0.00490295 0.00472414 0.00165334 0.00201762 0.00171466 0.00209945 0.00201762 0.00244678 0.00209945 0.0025467 0.00171466 0.00209945 0.00175379 0.00216333 0.00209945 0.0025467 0.00216333 0.00264661 0.00121928 0.00146676 0.001212 0.00147049 0.00146676 0.00175379 0.00147049 0.00176399 0.001212 0.00147049 0.00120471 0.00145961 0.00147049 0.00176399 0.00145961 0.00175675 0.00378287 0.00352169 0.00472414 0.0044742 0.00352169 0.0032605 0.0044742 0.00408752 0.0032605 0.00282652 0.00408752 0.00362196 0.00282652 0.00239253 0.00362196 0.00307615 0.0031354 0.00382264 0.00342071 0.00415845 0.00382264 0.0045637 0.00415845 0.00508023 0.00342071 0.00415845 0.00367154 0.00448435 0.00415845 0.00508023 0.00448435 0.00546734 0.00175379 0.00216333 0.00176399 0.0021825 0.00216333 0.00264661 0.0021825 0.00266537 0.00176399 0.0021825 0.00175675 0.00217904 0.0021825 0.00266537 0.00217904 0.00268412 0.00367154 0.00448435 0.00385501 0.00475535 0.00385501 0.00475535 0.00403848 0.00494181 0.00120471 0.00145961 0.00116246 0.00141591 0.00145961 0.00175675 0.00141591 0.0017055 0.00116246 0.00141591 0.0011202 0.00135721 0.00141591 0.0017055 0.00135721 0.00163409 0.00403848 0.00494181 0.00408983 0.00507496 0.00408983 0.00507496 0.00414119 0.00508932 0.00175675 0.00217904 0.0017055 0.00212272 0.00217904 0.00268412 0.00212272 0.00260347 0.0017055 0.00212272 0.00163409 0.00203922 0.00212272 0.00260347 0.00203922 0.00252281 0.00414119 0.00508932 0.00403678 0.00503816 0.00403678 0.00503816 0.00393237 0.00485121 0.00121353 0.00129109 0.00157629 0.00167322 0.00129109 0.00136864 0.00167322 0.00177281 0.00157629 0.00167322 0.00193906 0.00209476 0.00167322 0.00177281 0.00209476 0.00223394 0.00393237 0.00485121 0.00365826 0.00459235 0.00365826 0.00459235 0.00338414 0.0041933 0.00136864 0.0014141 0.00177281 0.00184862 0.0014141 0.00145956 0.00184862 0.00190236 0.00177281 0.00184862 0.00223394 0.00233959 0.00184862 0.00190236 0.00233959 0.0024142 0.00338414 0.0041933 0.00293261 0.00371395 0.00293261 0.00371395 0.00248108 0.00315217 0.0108201 0.0119387 0.0125913 0.0140407 0.0108342 0.0125913 0.0119631 0.0140527 0.0125913 0.0140407 0.0140527 0.0156814 0.0151113 0.0158874 0.0168846 0.0177853 0.000820996 0.000821232 0.00114028 0.00113419 0.000821232 0.000821469 0.00113419 0.00112605 0.00114028 0.00113419 0.00145956 0.0014717 0.00113419 0.00112605 0.0014717 0.00146708 0.000821469 0.000793893 0.00112605 0.00109528 0.000793893 0.000766317 0.00109528 0.00105116 0.00112605 0.00109528 0.00146708 0.00142802 0.00109528 0.00105116 0.00142802 0.00137192 0.0201315 0.0200746 0.021241 0.021218 0.0200746 0.0197051 0.021218 0.0207901 0.00145956 0.0014717 0.00190236 0.00192382 0.0014717 0.00146708 0.00192382 0.00192638 0.00190236 0.00192382 0.0024142 0.00243913 0.00192382 0.00192638 0.00243913 0.00246405 0.00146708 0.00142802 0.00192638 0.00188027 0.00142802 0.00137192 0.00188027 0.00181006 0.00192638 0.00188027 0.00246405 0.00239351 0.00188027 0.00181006 0.00239351 0.00232297 0.000766317 0.000704555 0.00105116 0.000981921 0.000704555 0.000642793 0.000981921 0.000902682 0.00105116 0.000981921 0.00137192 0.00128045 0.000981921 0.000902682 0.00128045 0.00116257 0.00137192 0.00128045 0.00181006 0.00168732 0.00128045 0.00116257 0.00168732 0.00153548 0.00181006 0.00168732 0.00232297 0.00215496 0.00168732 0.00153548 0.00215496 0.00198695 0.00116257 0.00100461 0.00153548 0.00133882 0.00100461 0.000846652 0.00133882 0.00114778 0.00153548 0.00133882 0.00198695 0.00171794 0.00133882 0.00114778 0.00171794 0.00144892 0.020107 0.0212305 0.0197224 0.0208023 0.0216418 0.0219908 0.0219864 0.0222984 0.0155913 0.0146249 0.0174893 0.0164554 0.0146249 0.0133474 0.0164554 0.0150083 0.0133474 0.0116794 0.0150083 0.0131738 0.0197051 0.0189551 0.0207901 0.0200549 0.0189551 0.0178582 0.0200549 0.0188297 0.0164554 0.0150083 0.0178582 0.0162678 0.0150083 0.0131738 0.0162678 0.0143042 0.0178582 0.0162678 0.0188297 0.0172599 0.0162678 0.0143042 0.0172599 0.0150807 0.00971399 0.00790919 0.0116794 0.00955451 0.00790919 0.00570112 0.00955451 0.00699553 0.0116794 0.00955451 0.0131738 0.0108234 0.00955451 0.00699553 0.0108234 0.00792125 0.00570112 0.00312589 0.00699553 0.00385379 0.0131738 0.0108234 0.0143042 0.0117309 0.0108234 0.00792125 0.0117309 0.00857316 0.0143042 0.0117309 0.0150807 0.012393 0.0117309 0.00857316 0.012393 0.00904099 0.0011202 0.00135721 0.00103448 0.0012617 0.00135721 0.00163409 0.0012617 0.00152076 0.00103448 0.0012617 0.000948758 0.00114446 0.0012617 0.00152076 0.00114446 0.00138107 0.012393 0.00904099 0.0127684 0.00933118 0.0127684 0.00933118 0.0129946 0.0094786 0.0129946 0.0094786 0.0129884 0.00948739 0.0129884 0.00948739 0.0128386 0.00936096 0.0156292 0.0175189 0.0146599 0.0164829 0.0197224 0.0208023 0.0189772 0.0200712 0.0189772 0.0200712 0.0178794 0.0188454 0.00163409 0.00203922 0.00152076 0.00189856 0.00203922 0.00252281 0.00189856 0.00233797 0.00152076 0.00189856 0.00138107 0.00172996 0.00189856 0.00233797 0.00172996 0.00215312 0.0146599 0.0164829 0.0133784 0.0150328 0.0133784 0.0150328 0.0117055 0.0131947 0.0164829 0.0178794 0.0150328 0.0162868 0.0178794 0.0188454 0.0162868 0.0172744 0.0150328 0.0162868 0.0131947 0.0143206 0.0162868 0.0172744 0.0143206 0.0150932 0.00974619 0.0117055 0.00793417 0.00957493 0.0117055 0.0131947 0.00957493 0.0108398 0.00793417 0.00957493 0.00571827 0.00700957 0.00957493 0.0108398 0.00700957 0.00793258 0.000948758 0.00114446 0.000809004 0.000991656 0.00114446 0.00138107 0.000991656 0.00120643 0.000809004 0.000991656 0.00066925 0.000833848 0.000991656 0.00120643 0.000833848 0.000998446 0.0131947 0.0143206 0.0108398 0.0117439 0.0143206 0.0150932 0.0117439 0.012403 0.0108398 0.0117439 0.00793258 0.00858217 0.0117439 0.012403 0.00858217 0.00904798 0.00571827 0.00700957 0.0031346 0.00386091 0.00138107 0.00172996 0.00120643 0.0015073 0.00172996 0.00215312 0.0015073 0.00186032 0.00120643 0.0015073 0.000998446 0.00128298 0.0015073 0.00186032 0.00128298 0.00156751 0.012403 0.012776 0.00904798 0.00933651 0.012776 0.0130001 0.00933651 0.00948255 0.00536873 0.00569823 0.00664626 0.00707583 0.00569823 0.00597247 0.00707583 0.00744103 0.00664626 0.00707583 0.00802659 0.00858842 0.00707583 0.00744103 0.00858842 0.00905351 0.00802659 0.00858842 0.00987818 0.010576 0.00858842 0.00905351 0.010576 0.0111647 0.00987818 0.010576 0.0119387 0.0128056 0.010576 0.0111647 0.0128056 0.0135281 0.0130001 0.0129923 0.00948255 0.00949025 0.0129923 0.0128413 0.00949025 0.00936294 0.021465 0.020733 0.0207348 0.0199547 0.020733 0.0194824 0.0199547 0.0188507 0.0207348 0.0199547 0.019485 0.0188518 0.00597247 0.00610599 0.00744103 0.00762594 0.00610599 0.006182 0.00762594 0.00773422 0.00744103 0.00762594 0.00905351 0.00929243 0.00762594 0.00773422 0.00929243 0.0094388 0.006182 0.00608725 0.00773422 0.00763383 0.00608725 0.0059262 0.00763383 0.00744827 0.00773422 0.00763383 0.0094388 0.00933109 0.00763383 0.00744827 0.00933109 0.00912385 0.00905351 0.00929243 0.0111647 0.0114653 0.00929243 0.0094388 0.0114653 0.011655 0.0111647 0.0114653 0.0135281 0.0138905 0.0114653 0.011655 0.0138905 0.0141576 0.0094388 0.00933109 0.011655 0.011542 0.00933109 0.00912385 0.011542 0.0113131 0.011655 0.011542 0.0141576 0.014044 0.011542 0.0113131 0.014044 0.0137905 0.00144892 0.00110878 0.00192072 0.0014789 0.00110878 0.000768642 0.0014789 0.0010218 0.00192072 0.0014789 0.00239253 0.00185537 0.0014789 0.0010218 0.00185537 0.00127495 0.00239253 0.00185537 0.00307615 0.00239048 0.00185537 0.00127495 0.00239048 0.00165256 0.00307615 0.00239048 0.00385143 0.00299681 0.00239048 0.00165256 0.00299681 0.00207904 0.0194824 0.0178738 0.0188507 0.0171989 0.0178738 0.015624 0.0171989 0.0151473 0.0188507 0.0171989 0.0177871 0.0162872 0.0171989 0.0151473 0.0162872 0.0143442 0.019485 0.0188518 0.017877 0.0172005 0.0188518 0.0177871 0.0172005 0.0162879 0.017877 0.0172005 0.0156271 0.0151492 0.0172005 0.0162879 0.0151492 0.0143452 0.00127495 0.000637475 0.00165256 0.00083206 0.000637475 0 0.00083206 0 0.00165256 0.00083206 0.00207904 0.00105532 0.00083206 0 0.00105532 0 0.0059262 0.00557694 0.00744827 0.00703356 0.00557694 0.00516098 0.00703356 0.00652906 0.00744827 0.00703356 0.00912385 0.00863837 0.00703356 0.00652906 0.00863837 0.00804433 0.00516098 0.00454278 0.00652906 0.0057819 0.00454278 0.00385143 0.0057819 0.00494118 0.00652906 0.0057819 0.00804433 0.00715098 0.0057819 0.00494118 0.00715098 0.00614107 0.00912385 0.00863837 0.0113131 0.0107553 0.00863837 0.00804433 0.0107553 0.0100684 0.0113131 0.0107553 0.0137905 0.0131279 0.0107553 0.0100684 0.0131279 0.0123525 0.00804433 0.00715098 0.0100684 0.00901214 0.00715098 0.00614107 0.00901214 0.00780413 0.0100684 0.00901214 0.0123525 0.0111239 0.00901214 0.00780413 0.0111239 0.00971399 0.0177871 0.0162872 0.0162879 0.0149474 0.0162872 0.0143442 0.0149474 0.0132031 0.0162879 0.0149474 0.0143452 0.0132035 0.0149474 0.0132031 0.0132035 0.0117082 0.00385143 0.00299681 0.00494118 0.00386437 0.00299681 0.00207904 0.00386437 0.00270151 0.00494118 0.00386437 0.00614107 0.0048402 0.00386437 0.00270151 0.0048402 0.00342147 0.00546734 0.00672464 0.00580387 0.00716174 0.00672464 0.00808478 0.00716174 0.0086546 0.00580387 0.00716174 0.00608558 0.0075337 0.00716174 0.0086546 0.0075337 0.00912662 0.00808478 0.00991929 0.0086546 0.0106256 0.00991929 0.0119631 0.0106256 0.0128382 0.0086546 0.0106256 0.00912662 0.0112219 0.0106256 0.0128382 0.0112219 0.0135696 0.00194554 0.00229558 0.00223605 0.00265385 0.00229558 0.00264561 0.00265385 0.0031097 0.00223605 0.00265385 0.00252656 0.00303091 0.00265385 0.0031097 0.00303091 0.00358368 0.015624 0.0128386 0.0151473 0.0124323 0.0128386 0.00936096 0.0124323 0.00908573 0.0151473 0.0124323 0.0143442 0.0118109 0.0124323 0.00908573 0.0118109 0.0086562 0.0017752 0.00215088 0.00195536 0.00237879 0.00215088 0.00252656 0.00237879 0.00283441 0.00195536 0.00237879 0.00213552 0.00261134 0.00237879 0.00283441 0.00261134 0.0031354 0.00252656 0.00303091 0.00283441 0.00342827 0.00303091 0.00358368 0.00342827 0.00407756 0.00283441 0.00342827 0.0031354 0.00382264 0.00342827 0.00407756 0.00382264 0.0045637 0.0143442 0.0118109 0.0132031 0.0109091 0.0118109 0.0086562 0.0109091 0.00802941 0.0132031