# vtk DataFile Version 3.0
#This file was generated by the deal.II library on 2021/4/23 at 0:45:48
ASCII
DATASET UNSTRUCTURED_GRID

FIELD FieldData 2
CYCLE 1 1 int
220
TIME 1 1 double
0.44
POINTS 5556 double
-1 -1 0
-0.75 -1 0
-1 -0.75 0
-0.75 -0.75 0
-0.75 -1 0
-0.5 -1 0
-0.75 -0.75 0
-0.5 -0.75 0
-1 -0.75 0
-0.75 -0.75 0
-1 -0.5 0
-0.75 -0.5 0
-0.75 -0.75 0
-0.5 -0.75 0
-0.75 -0.5 0
-0.5 -0.5 0
-0.5 -1 0
-0.25 -1 0
-0.5 -0.75 0
-0.25 -0.75 0
-0.25 -1 0
0 -1 0
-0.25 -0.75 0
0 -0.75 0
-0.5 -0.75 0
-0.25 -0.75 0
-0.5 -0.5 0
-0.25 -0.5 0
-1 -0.5 0
-0.75 -0.5 0
-1 -0.25 0
-0.75 -0.25 0
-0.75 -0.5 0
-0.5 -0.5 0
-0.75 -0.25 0
-0.5 -0.25 0
-1 -0.25 0
-0.75 -0.25 0
-1 0 0
-0.75 0 0
-0.5 -0.5 0
-0.25 -0.5 0
-0.5 -0.25 0
-0.25 -0.25 0
-0.5 -0.25 0
-0.25 -0.25 0
-0.5 0 0
-0.25 0 0
-1 0.75 0
-0.75 0.75 0
-1 1 0
-0.75 1 0
-0.25 -0.75 0
-0.125 -0.75 0
-0.25 -0.625 0
-0.125 -0.625 0
-0.125 -0.75 0
0 -0.75 0
-0.125 -0.625 0
0 -0.625 0
-0.25 -0.625 0
-0.125 -0.625 0
-0.25 -0.5 0
-0.125 -0.5 0
-0.125 -0.625 0
0 -0.625 0
-0.125 -0.5 0
0 -0.5 0
-0.75 -0.25 0
-0.625 -0.25 0
-0.75 -0.125 0
-0.625 -0.125 0
-0.625 -0.25 0
-0.5 -0.25 0
-0.625 -0.125 0
-0.5 -0.125 0
-0.75 -0.125 0
-0.625 -0.125 0
-0.75 0 0
-0.625 0 0
-0.625 -0.125 0
-0.5 -0.125 0
-0.625 0 0
-0.5 0 0
0 -0.75 0
0.125 -0.75 0
0 -0.625 0
0.125 -0.625 0
-0.25 -0.5 0
-0.125 -0.5 0
-0.25 -0.375 0
-0.125 -0.375 0
-0.125 -0.5 0
0 -0.5 0
-0.125 -0.375 0
0 -0.375 0
-0.25 -0.375 0
-0.125 -0.375 0
-0.25 -0.25 0
-0.125 -0.25 0
-0.125 -0.375 0
0 -0.375 0
-0.125 -0.25 0
0 -0.25 0
0 -1 0
0.125 -1 0
0 -0.875 0
0.125 -0.875 0
0.125 -1 0
0.25 -1 0
0.125 -0.875 0
0.25 -0.875 0
0 -0.875 0
0.125 -0.875 0
0 -0.75 0
0.125 -0.75 0
0.125 -0.875 0
0.25 -0.875 0
0.125 -0.75 0
0.25 -0.75 0
-1 0 0
-0.875 0 0
-1 0.125 0
-0.875 0.125 0
-0.875 0 0
-0.75 0 0
-0.875 0.125 0
-0.75 0.125 0
-1 0.125 0
-0.875 0.125 0
-1 0.25 0
-0.875 0.25 0
-0.875 0.125 0
-0.75 0.125 0
-0.875 0.25 0
-0.75 0.25 0
-0.75 0 0
-0.625 0 0
-0.75 0.125 0
-0.625 0.125 0
-0.625 0 0
-0.5 0 0
-0.625 0.125 0
-0.5 0.125 0
-0.75 0.125 0
-0.625 0.125 0
-0.75 0.25 0
-0.625 0.25 0
-0.625 0.125 0
-0.5 0.125 0
-0.625 0.25 0
-0.5 0.25 0
-0.5 0 0
-0.375 0 0
-0.5 0.125 0
-0.375 0.125 0
-0.375 0 0
-0.25 0 0
-0.375 0.125 0
-0.25 0.125 0
0.25 -1 0
0.375 -1 0
0.25 -0.875 0
0.375 -0.875 0
-0.25 -0.25 0
-0.125 -0.25 0
-0.25 -0.125 0
-0.125 -0.125 0
-0.125 -0.25 0
0 -0.25 0
-0.125 -0.125 0
0 -0.125 0
-0.25 -0.125 0
-0.125 -0.125 0
-0.25 0 0
-0.125 0 0
-0.125 -0.125 0
0 -0.125 0
-0.125 0 0
0 0 0
-1 0.25 0
-0.875 0.25 0
-1 0.375 0
-0.875 0.375 0
-0.875 0.25 0
-0.75 0.25 0
-0.875 0.375 0
-0.75 0.375 0
-1 0.375 0
-0.875 0.375 0
-1 0.5 0
-0.875 0.5 0
-0.875 0.375 0
-0.75 0.375 0
-0.875 0.5 0
-0.75 0.5 0
0.875 -1 0
1 -1 0
0.875 -0.875 0
1 -0.875 0
-0.625 0.375 0
-0.5 0.375 0
-0.625 0.5 0
-0.5 0.5 0
-0.25 0 0
-0.125 0 0
-0.25 0.125 0
-0.125 0.125 0
-0.125 0 0
0 0 0
-0.125 0.125 0
0 0.125 0
-0.25 0.125 0
-0.125 0.125 0
-0.25 0.25 0
-0.125 0.25 0
-0.125 0.125 0
0 0.125 0
-0.125 0.25 0
0 0.25 0
-1 0.5 0
-0.875 0.5 0
-1 0.625 0
-0.875 0.625 0
-0.875 0.5 0
-0.75 0.5 0
-0.875 0.625 0
-0.75 0.625 0
-1 0.625 0
-0.875 0.625 0
-1 0.75 0
-0.875 0.75 0
-0.875 0.625 0
-0.75 0.625 0
-0.875 0.75 0
-0.75 0.75 0
0 -0.125 0
0.125 -0.125 0
0 0 0
0.125 0 0
-0.25 0.25 0
-0.125 0.25 0
-0.25 0.375 0
-0.125 0.375 0
-0.125 0.25 0
0 0.25 0
-0.125 0.375 0
0 0.375 0
-0.25 0.375 0
-0.125 0.375 0
-0.25 0.5 0
-0.125 0.5 0
-0.125 0.375 0
0 0.375 0
-0.125 0.5 0
0 0.5 0
-0.5 0.375 0
-0.375 0.375 0
-0.5 0.5 0
-0.375 0.5 0
-0.375 0.375 0
-0.25 0.375 0
-0.375 0.5 0
-0.25 0.5 0
-0.25 0.75 0
-0.125 0.75 0
-0.25 0.875 0
-0.125 0.875 0
-0.125 0.75 0
0 0.75 0
-0.125 0.875 0
0 0.875 0
-0.25 0.875 0
-0.125 0.875 0
-0.25 1 0
-0.125 1 0
-0.125 0.875 0
0 0.875 0
-0.125 1 0
0 1 0
-0.625 0.5 0
-0.5 0.5 0
-0.625 0.625 0
-0.5 0.625 0
-0.625 0.625 0
-0.5 0.625 0
-0.625 0.75 0
-0.5 0.75 0
-0.75 0.75 0
-0.625 0.75 0
-0.75 0.875 0
-0.625 0.875 0
-0.625 0.75 0
-0.5 0.75 0
-0.625 0.875 0
-0.5 0.875 0
-0.75 0.875 0
-0.625 0.875 0
-0.75 1 0
-0.625 1 0
-0.625 0.875 0
-0.5 0.875 0
-0.625 1 0
-0.5 1 0
-0.5 0.5 0
-0.375 0.5 0
-0.5 0.625 0
-0.375 0.625 0
-0.375 0.5 0
-0.25 0.5 0
-0.375 0.625 0
-0.25 0.625 0
-0.5 0.625 0
-0.375 0.625 0
-0.5 0.75 0
-0.375 0.75 0
-0.375 0.625 0
-0.25 0.625 0
-0.375 0.75 0
-0.25 0.75 0
-0.25 0.5 0
-0.125 0.5 0
-0.25 0.625 0
-0.125 0.625 0
-0.125 0.5 0
0 0.5 0
-0.125 0.625 0
0 0.625 0
-0.25 0.625 0
-0.125 0.625 0
-0.25 0.75 0
-0.125 0.75 0
-0.125 0.625 0
0 0.625 0
-0.125 0.75 0
0 0.75 0
-0.5 0.75 0
-0.375 0.75 0
-0.5 0.875 0
-0.375 0.875 0
-0.375 0.75 0
-0.25 0.75 0
-0.375 0.875 0
-0.25 0.875 0
-0.5 0.875 0
-0.375 0.875 0
-0.5 1 0
-0.375 1 0
-0.375 0.875 0
-0.25 0.875 0
-0.375 1 0
-0.25 1 0
0.125 -0.5 0
0.1875 -0.5 0
0.125 -0.4375 0
0.1875 -0.4375 0
0.125 -0.75 0
0.1875 -0.75 0
0.125 -0.6875 0
0.1875 -0.6875 0
0.1875 -0.75 0
0.25 -0.75 0
0.1875 -0.6875 0
0.25 -0.6875 0
0.125 -0.6875 0
0.1875 -0.6875 0
0.125 -0.625 0
0.1875 -0.625 0
0.1875 -0.6875 0
0.25 -0.6875 0
0.1875 -0.625 0
0.25 -0.625 0
0.5 -0.875 0
0.5625 -0.875 0
0.5 -0.8125 0
0.5625 -0.8125 0
0.5625 -0.875 0
0.625 -0.875 0
0.5625 -0.8125 0
0.625 -0.8125 0
0.8125 -0.875 0
0.875 -0.875 0
0.8125 -0.8125 0
0.875 -0.8125 0
0 -0.625 0
0.0625 -0.625 0
0 -0.5625 0
0.0625 -0.5625 0
0.0625 -0.625 0
0.125 -0.625 0
0.0625 -0.5625 0
0.125 -0.5625 0
0 -0.5625 0
0.0625 -0.5625 0
0 -0.5 0
0.0625 -0.5 0
0.0625 -0.5625 0
0.125 -0.5625 0
0.0625 -0.5 0
0.125 -0.5 0
0.125 -0.625 0
0.1875 -0.625 0
0.125 -0.5625 0
0.1875 -0.5625 0
0.1875 -0.625 0
0.25 -0.625 0
0.1875 -0.5625 0
0.25 -0.5625 0
0.125 -0.5625 0
0.1875 -0.5625 0
0.125 -0.5 0
0.1875 -0.5 0
0.1875 -0.5625 0
0.25 -0.5625 0
0.1875 -0.5 0
0.25 -0.5 0
0 -0.5 0
0.0625 -0.5 0
0 -0.4375 0
0.0625 -0.4375 0
0.0625 -0.5 0
0.125 -0.5 0
0.0625 -0.4375 0
0.125 -0.4375 0
0 -0.4375 0
0.0625 -0.4375 0
0 -0.375 0
0.0625 -0.375 0
0.0625 -0.4375 0
0.125 -0.4375 0
0.0625 -0.375 0
0.125 -0.375 0
0 -0.375 0
0.0625 -0.375 0
0 -0.3125 0
0.0625 -0.3125 0
0.0625 -0.375 0
0.125 -0.375 0
0.0625 -0.3125 0
0.125 -0.3125 0
0 -0.3125 0
0.0625 -0.3125 0
0 -0.25 0
0.0625 -0.25 0
0.0625 -0.3125 0
0.125 -0.3125 0
0.0625 -0.25 0
0.125 -0.25 0
-0.5 0.125 0
-0.4375 0.125 0
-0.5 0.1875 0
-0.4375 0.1875 0
-0.4375 0.125 0
-0.375 0.125 0
-0.4375 0.1875 0
-0.375 0.1875 0
-0.5 0.1875 0
-0.4375 0.1875 0
-0.5 0.25 0
-0.4375 0.25 0
-0.4375 0.1875 0
-0.375 0.1875 0
-0.4375 0.25 0
-0.375 0.25 0
-0.375 0.125 0
-0.3125 0.125 0
-0.375 0.1875 0
-0.3125 0.1875 0
-0.3125 0.125 0
-0.25 0.125 0
-0.3125 0.1875 0
-0.25 0.1875 0
-0.375 0.1875 0
-0.3125 0.1875 0
-0.375 0.25 0
-0.3125 0.25 0
-0.3125 0.1875 0
-0.25 0.1875 0
-0.3125 0.25 0
-0.25 0.25 0
0.375 -1 0
0.4375 -1 0
0.375 -0.9375 0
0.4375 -0.9375 0
0.4375 -1 0
0.5 -1 0
0.4375 -0.9375 0
0.5 -0.9375 0
0.375 -0.9375 0
0.4375 -0.9375 0
0.375 -0.875 0
0.4375 -0.875 0
0.4375 -0.9375 0
0.5 -0.9375 0
0.4375 -0.875 0
0.5 -0.875 0
0.25 -0.875 0
0.3125 -0.875 0
0.25 -0.8125 0
0.3125 -0.8125 0
0.3125 -0.875 0
0.375 -0.875 0
0.3125 -0.8125 0
0.375 -0.8125 0
0.25 -0.8125 0
0.3125 -0.8125 0
0.25 -0.75 0
0.3125 -0.75 0
0.3125 -0.8125 0
0.375 -0.8125 0
0.3125 -0.75 0
0.375 -0.75 0
0.375 -0.875 0
0.4375 -0.875 0
0.375 -0.8125 0
0.4375 -0.8125 0
0.4375 -0.875 0
0.5 -0.875 0
0.4375 -0.8125 0
0.5 -0.8125 0
0.375 -0.8125 0
0.4375 -0.8125 0
0.375 -0.75 0
0.4375 -0.75 0
0.4375 -0.8125 0
0.5 -0.8125 0
0.4375 -0.75 0
0.5 -0.75 0
0.25 -0.75 0
0.3125 -0.75 0
0.25 -0.6875 0
0.3125 -0.6875 0
0.3125 -0.75 0
0.375 -0.75 0
0.3125 -0.6875 0
0.375 -0.6875 0
0.25 -0.6875 0
0.3125 -0.6875 0
0.25 -0.625 0
0.3125 -0.625 0
0.3125 -0.6875 0
0.375 -0.6875 0
0.3125 -0.625 0
0.375 -0.625 0
0.5 -1 0
0.5625 -1 0
0.5 -0.9375 0
0.5625 -0.9375 0
0.5625 -1 0
0.625 -1 0
0.5625 -0.9375 0
0.625 -0.9375 0
0.5 -0.9375 0
0.5625 -0.9375 0
0.5 -0.875 0
0.5625 -0.875 0
0.5625 -0.9375 0
0.625 -0.9375 0
0.5625 -0.875 0
0.625 -0.875 0
0.625 -1 0
0.6875 -1 0
0.625 -0.9375 0
0.6875 -0.9375 0
0.6875 -1 0
0.75 -1 0
0.6875 -0.9375 0
0.75 -0.9375 0
0.625 -0.9375 0
0.6875 -0.9375 0
0.625 -0.875 0
0.6875 -0.875 0
0.6875 -0.9375 0
0.75 -0.9375 0
0.6875 -0.875 0
0.75 -0.875 0
0.75 -1 0
0.8125 -1 0
0.75 -0.9375 0
0.8125 -0.9375 0
0.8125 -1 0
0.875 -1 0
0.8125 -0.9375 0
0.875 -0.9375 0
0.75 -0.9375 0
0.8125 -0.9375 0
0.75 -0.875 0
0.8125 -0.875 0
0.8125 -0.9375 0
0.875 -0.9375 0
0.8125 -0.875 0
0.875 -0.875 0
0.875 -0.875 0
0.9375 -0.875 0
0.875 -0.8125 0
0.9375 -0.8125 0
0.9375 -0.875 0
1 -0.875 0
0.9375 -0.8125 0
1 -0.8125 0
0.875 -0.8125 0
0.9375 -0.8125 0
0.875 -0.75 0
0.9375 -0.75 0
0.9375 -0.8125 0
1 -0.8125 0
0.9375 -0.75 0
1 -0.75 0
-0.75 0.25 0
-0.6875 0.25 0
-0.75 0.3125 0
-0.6875 0.3125 0
-0.6875 0.25 0
-0.625 0.25 0
-0.6875 0.3125 0
-0.625 0.3125 0
-0.75 0.3125 0
-0.6875 0.3125 0
-0.75 0.375 0
-0.6875 0.375 0
-0.6875 0.3125 0
-0.625 0.3125 0
-0.6875 0.375 0
-0.625 0.375 0
-0.625 0.25 0
-0.5625 0.25 0
-0.625 0.3125 0
-0.5625 0.3125 0
-0.5625 0.25 0
-0.5 0.25 0
-0.5625 0.3125 0
-0.5 0.3125 0
-0.625 0.3125 0
-0.5625 0.3125 0
-0.625 0.375 0
-0.5625 0.375 0
-0.5625 0.3125 0
-0.5 0.3125 0
-0.5625 0.375 0
-0.5 0.375 0
-0.75 0.375 0
-0.6875 0.375 0
-0.75 0.4375 0
-0.6875 0.4375 0
-0.6875 0.375 0
-0.625 0.375 0
-0.6875 0.4375 0
-0.625 0.4375 0
-0.75 0.4375 0
-0.6875 0.4375 0
-0.75 0.5 0
-0.6875 0.5 0
-0.6875 0.4375 0
-0.625 0.4375 0
-0.6875 0.5 0
-0.625 0.5 0
0 -0.25 0
0.0625 -0.25 0
0 -0.1875 0
0.0625 -0.1875 0
0.0625 -0.25 0
0.125 -0.25 0
0.0625 -0.1875 0
0.125 -0.1875 0
0 -0.1875 0
0.0625 -0.1875 0
0 -0.125 0
0.0625 -0.125 0
0.0625 -0.1875 0
0.125 -0.1875 0
0.0625 -0.125 0
0.125 -0.125 0
0.125 -0.125 0
0.1875 -0.125 0
0.125 -0.0625 0
0.1875 -0.0625 0
0.1875 -0.125 0
0.25 -0.125 0
0.1875 -0.0625 0
0.25 -0.0625 0
0.125 -0.0625 0
0.1875 -0.0625 0
0.125 0 0
0.1875 0 0
0.1875 -0.0625 0
0.25 -0.0625 0
0.1875 0 0
0.25 0 0
-0.5 0.25 0
-0.4375 0.25 0
-0.5 0.3125 0
-0.4375 0.3125 0
-0.4375 0.25 0
-0.375 0.25 0
-0.4375 0.3125 0
-0.375 0.3125 0
-0.5 0.3125 0
-0.4375 0.3125 0
-0.5 0.375 0
-0.4375 0.375 0
-0.4375 0.3125 0
-0.375 0.3125 0
-0.4375 0.375 0
-0.375 0.375 0
-0.375 0.25 0
[...]
POINT_DATA 5556
SCALARS U double 1
LOOKUP_TABLE default
0 0 0 9.72346e-05 0 0 9.72346e-05 0.000182756 0 9.72346e-05 0 0.000219902 9.72346e-05 0.000182756 0.000219902 0.000382232 0 0 0.000182756 0.000246737 0 0 0.000246737 0.000350402 0.000182756 0.000246737 0.000382232 0.000471943 0 0.000219902 0 0.000419876 0.000219902 0.000382232 0.000419876 0.000668716 0 0.000419876 0 0.000723434 0.000382232 0.000471943 0.000668716 0.000661572 0.000668716 0.000661572 0.00110605 0.000897556 0 0.00083375 0 0 0.000246737 0.000298569 0.00035934 0.000413877 0.000298569 0.000350402 0.000413877 0.000524546 0.00035934 0.000413877 0.000471943 0.000519223 0.000413877 0.000524546 0.000519223 0.000677125 0.000419876 0.000544296 0.000571655 0.000757921 0.000544296 0.000668716 0.000757921 0.000887385 0.000571655 0.000757921 0.000723434 0.000978299 0.000757921 0.000887385 0.000978299 0.00110605 0.000350402 0.000506412 0.000524546 0.00081686 0.000471943 0.000519223 0.000566758 0.000594119 0.000519223 0.000677125 0.000594119 0.000752226 0.000566758 0.000594119 0.000661572 0.000622467 0.000594119 0.000752226 0.000622467 0.000714011 0 0 0.000175201 0.000239779 0 0 0.000239779 0.000353369 0.000175201 0.000239779 0.000350402 0.000506412 0.000239779 0.000353369 0.000506412 0.000826203 0 0.000361717 0 0.000477814 0.000361717 0.000723434 0.000477814 0.000901663 0 0.000477814 0 0.000569181 0.000477814 0.000901663 0.000569181 0.001071 0.000723434 0.000978299 0.000901663 0.00121167 0.000978299 0.00110605 0.00121167 0.00134613 0.000901663 0.00121167 0.001071 0.00143148 0.00121167 0.00134613 0.00143148 0.00158412 0.00110605 0.00100181 0.00134613 0.00129127 0.00100181 0.000897556 0.00129127 0.00102591 0 0 0.000353369 0.000538322 0.000661572 0.000622467 0.000779564 0.000588739 0.000622467 0.000714011 0.000588739 0.000498195 0.000779564 0.000588739 0.000897556 0.000564286 0.000588739 0.000498195 0.000564286 0 0 0.000569181 0 0.000629782 0.000569181 0.001071 0.000629782 0.00118004 0 0.000629782 0 0.000637294 0.000629782 0.00118004 0.000637294 0.00119484 0 0 0.000498889 0 0.00157596 0.00175127 0.0015937 0.0017663 0.000897556 0.000564286 0.00102591 0.000576748 0.000564286 0 0.000576748 0 0.00102591 0.000576748 0.0011782 0.000651705 0.000576748 0 0.000651705 0 0 0.000637294 0 0.000574224 0.000637294 0.00119484 0.000574224 0.00107594 0 0.000574224 0 0.000416875 0.000574224 0.00107594 0.000416875 0.00083375 0.000498195 0.000712818 0 0 0.0011782 0.000651705 0.00129522 0.000709753 0.000651705 0 0.000709753 0 0.00129522 0.000709753 0.00130323 0.000714405 0.000709753 0 0.000714405 0 0.00175127 0.00165871 0.0017663 0.00167015 0.00165871 0.00129522 0.00167015 0.00130323 0.000891968 0.000488782 0.00048303 0.000264689 0.000488782 0 0.000264689 0 0.00048303 0.000264689 0 0 0.000264689 0 0 0 0.0015937 0.0017663 0.00143694 0.00159071 0.00143694 0.00159071 0.00109168 0.00120995 0.00083375 0.00109168 0.000416875 0.000589326 0.00109168 0.00120995 0.000589326 0.000654992 0.000416875 0.000589326 0 0 0.000589326 0.000654992 0 0 0.0017663 0.00167015 0.00159071 0.00150338 0.00167015 0.00130323 0.00150338 0.00117265 0.00159071 0.00150338 0.00120995 0.00114362 0.00150338 0.00117265 0.00114362 0.000891968 0.00130323 0.000714405 0.00117265 0.000642671 0.000714405 0 0.000642671 0 0.00117265 0.000642671 0.000891968 0.000488782 0.000642671 0 0.000488782 0 0.00120995 0.00114362 0.000654992 0.000619312 0.00114362 0.000891968 0.000619312 0.00048303 0.000654992 0.000619312 0 0 0.000619312 0.00048303 0 0 0.00112737 0.00157651 0.00123536 0.00177361 0.000506412 0.000666308 0.000661636 0.0008629 0.000666308 0.000826203 0.0008629 0.00114972 0.000661636 0.0008629 0.00081686 0.00109996 0.0008629 0.00114972 0.00109996 0.0015094 0.000758111 0.000840774 0.00130466 0.00148774 0.000840774 0.000890722 0.00148774 0.00157717 0.000697286 0.000498889 0.0012576 0.000904236 0.000524546 0.000670703 0.000600835 0.000751082 0.000670703 0.00081686 0.000751082 0.000985614 0.000600835 0.000751082 0.000677125 0.000840908 0.000751082 0.000985614 0.000840908 0.00112737 0.00081686 0.00109996 0.000985614 0.00134746 0.00109996 0.0015094 0.00134746 0.00189688 0.000985614 0.00134746 0.00112737 0.00157651 0.00134746 0.00189688 0.00157651 0.00229327 0.000677125 0.000840908 0.000714675 0.000912483 0.000840908 0.00112737 0.000912483 0.00123536 0.000714675 0.000912483 0.000752226 0.000944274 0.000912483 0.00123536 0.000944274 0.00130556 0.000752226 0.000944274 0.000733118 0.000935815 0.000944274 0.00130556 0.000935815 0.00129327 0.000733118 0.000935815 0.000714011 0.000868582 0.000935815 0.00129327 0.000868582 0.00119748 0.00134613 0.0013187 0.00146512 0.00145944 0.0013187 0.00129127 0.00145944 0.00139161 0.00146512 0.00145944 0.00158412 0.00156909 0.00145944 0.00139161 0.00156909 0.00149836 0.00129127 0.00115859 0.00139161 0.00127556 0.00115859 0.00102591 0.00127556 0.00110206 0.00139161 0.00127556 0.00149836 0.00136599 0.00127556 0.00110206 0.00136599 0.0011782 0 0 0.000269161 0.00030073 0 0 0.00030073 0.000344073 0.000269161 0.00030073 0.000538322 0.00065303 0.00030073 0.000344073 0.00065303 0.000758111 0.000353369 0.000445845 0.000589786 0.000726918 0.000445845 0.000538322 0.000726918 0.000908573 0.000589786 0.000726918 0.000826203 0.00108597 0.000726918 0.000908573 0.00108597 0.00139195 0.000538322 0.00065303 0.000908573 0.00110952 0.00065303 0.000758111 0.00110952 0.00130466 0.000908573 0.00110952 0.00139195 0.00173444 0.00110952 0.00130466 0.00173444 0.00209615 0.000826203 0.00108597 0.00114972 0.00153304 0.00108597 0.00139195 0.00153304 0.00201983 0.00114972 0.00153304 0.0015094 0.00207365 0.00153304 0.00201983 0.00207365 0.00283539 0 0 0.000344073 0.000380636 0 0 0.000380636 0.000401049 0.000344073 0.000380636 0.000758111 0.000840774 0.000380636 0.000401049 0.000840774 0.000890722 0 0 0.000401049 0.000397993 0 0 0.000397993 0.000368923 0.000401049 0.000397993 0.000890722 0.000900993 0.000397993 0.000368923 0.000900993 0.000836225 0 0 0.000368923 0.000311756 0 0 0.000311756 0.000249444 0.000368923 0.000311756 0.000836225 0.000697286 0.000311756 0.000249444 0.000697286 0.000498889 0.000498889 0.000249444 0.000904236 0.000478057 0.000249444 0 0.000478057 0 0.000904236 0.000478057 0.00154136 0.000819009 0.000478057 0 0.000819009 0 0.001071 0.00125124 0.00112552 0.00134337 0.00125124 0.00143148 0.00134337 0.00150189 0.00112552 0.00134337 0.00118004 0.00139342 0.00134337 0.00150189 0.00139342 0.00157596 0.00143148 0.0015078 0.00150189 0.00161964 0.0015078 0.00158412 0.00161964 0.00166603 0.00150189 0.00161964 0.00157596 0.00166362 0.00161964 0.00166603 0.00166362 0.00175127 0.00118004 0.00139342 0.00118744 0.00142186 0.00139342 0.00157596 0.00142186 0.00158483 0.00118744 0.00142186 0.00119484 0.00140616 0.00142186 0.00158483 0.00140616 0.0015937 0.000714011 0.000868582 0.000606103 0.000746563 0.000868582 0.00119748 0.000746563 0.00101855 0.000606103 0.000746563 0.000498195 0.000605506 0.000746563 0.00101855 0.000605506 0.000712818 0.000712818 0.00105395 0.000356409 0.000559332 0.00105395 0.00166127 0.000559332 0.000879465 0.000356409 0.000559332 0 0 0.000559332 0.000879465 0 0 0.00158412 0.00156909 0.00166603 0.00166332 0.00156909 0.00149836 0.00166332 0.00158061 0.00166603 0.00166332 0.00175127 0.00170499 0.00166332 0.00158061 0.00170499 0.00165871 0.00149836 0.00136599 0.00158061 0.00144384 0.00136599 0.0011782 0.00144384 0.00123671 0.00158061 0.00144384 0.00165871 0.00147697 0.00144384 0.00123671 0.00147697 0.00129522 0.00119484 0.00140616 0.00113539 0.00136232 0.00140616 0.0015937 0.00136232 0.00151532 0.00113539 0.00136232 0.00107594 0.00126692 0.00136232 0.00151532 0.00126692 0.00143694 0.00107594 0.00126692 0.000954847 0.00114121 0.00126692 0.00143694 0.00114121 0.00126431 0.000954847 0.00114121 0.00083375 0.000962716 0.00114121 0.00126431 0.000962716 0.00109168 0.000819009 0 0.00133867 0 0.0015094 0.00207365 0.00189688 0.00269809 0.00139195 0.00173444 0.00201983 0.0025998 0.00258793 0.00263531 0.00407734 0.00418815 0.00263531 0.00248369 0.00418815 0.00397619 0.00248369 0.00211709 0.00397619 0.00341904 0.00211709 0.00154136 0.00341904 0.00252283 0.00260967 0.00387731 0.00282258 0.00425189 0.00282258 0.00425189 0.00285706 0.00435157 0.00285706 0.00435157 0.00268394 0.00412518 0.00268394 0.00412518 0.00228395 0.00354265 0.00228395 0.00354265 0.00166127 0.00261064 0.000879465 0.00138433 0 0 0.00477238 0.00520525 0.00570458 0.00636871 0.00520525 0.00565664 0.00636871 0.00685399 0.00570458 0.00636871 0.00685828 0.00761103 0.00217227 0.0011115 0.00271321 0.00141446 0.0011115 0 0.00141446 0 0.00271321 0.00141446 0.00346164 0.00176932 0.00141446 0 0.00176932 0 0.00176932 0 0.00225768 0 0.00485018 0.00575852 0.00529443 0.00643597 0.00575852 0.00689201 0.00643597 0.00765775 0.00529443 0.00643597 0.005755 0.00693053 0.00523261 0.00602112 0.00603969 0.00704276 0.00602112 0.00685828 0.00704276 0.00809193 0.00603969 0.00704276 0.00689201 0.00810772 0.00704276 0.00809193 0.00810772 0.00943677 0.00220599 0.00274187 0.00112862 0.00142904 0.00274187 0.00348596 0.00142904 0.00178164 0.00112862 0.00142904 0 0 0.00142904 0.00178164 0 0 0.00178164 0.00226799 0 0 0.00321263 0.00348996 0.00389815 0.0042843 0.00348996 0.0037331 0.0042843 0.00460111 0.00389815 0.0042843 0.00477238 0.00520525 0.0042843 0.00460111 0.00520525 0.00565664 0.0037331 0.00395467 0.00460111 0.00487427 0.00395467 0.00407734 0.00487427 0.00507744 0.00157651 0.00193489 0.00167506 0.0020295 0.00193489 0.00229327 0.0020295 0.00248615 0.00167506 0.0020295 0.00177361 0.00213757 0.0020295 0.00248615 0.00213757 0.00260967 0.00123536 0.00150449 0.00127046 0.00151998 0.00150449 0.00177361 0.00151998 0.00184988 0.00127046 0.00151998 0.00130556 0.001545 0.00151998 0.00184988 0.001545 0.00188852 0.00407734 0.00413275 0.00507744 0.00518592 0.00413275 0.00418815 0.00518592 0.00521909 0.00418815 0.00408217 0.00521909 0.00514247 0.00408217 0.00397619 0.00514247 0.00497301 0.00177361 0.00213757 0.00184988 0.00222904 0.00213757 0.00260967 0.00222904 0.00271613 0.00184988 0.00222904 0.00188852 0.00228051 0.00222904 0.00271613 0.00228051 0.00282258 0.00130556 0.001545 0.00129941 0.00155731 0.001545 0.00188852 0.00155731 0.00190591 0.00129941 0.00155731 0.00129327 0.00153537 0.00155731 0.00190591 0.00153537 0.00188598 0.00397619 0.00369761 0.00497301 0.00468392 0.00369761 0.00341904 0.00468392 0.00429531 0.00341904 0.00297093 0.00429531 0.00379613 0.00297093 0.00252283 0.00379613 0.00315398 0.00334595 0.00400197 0.0036412 0.00439925 0.00400197 0.00485018 0.00439925 0.00529443 0.0036412 0.00439925 0.00387731 0.00472064 0.00439925 0.00529443 0.00472064 0.005755 0.00188852 0.00228051 0.00190591 0.00231557 0.00228051 0.00282258 0.00231557 0.00283982 0.00190591 0.00231557 0.00188598 0.00229228 0.00231557 0.00283982 0.00229228 0.00285706 0.00387731 0.00472064 0.0040646 0.00500557 0.0040646 0.00500557 0.00425189 0.00521231 0.00129327 0.00153537 0.00124538 0.00149921 0.00153537 0.00188598 0.00149921 0.00184308 0.00124538 0.00149921 0.00119748 0.0014232 0.00149921 0.00184308 0.0014232 0.00175709 0.00425189 0.00521231 0.00430173 0.00532668 0.00430173 0.00532668 0.00435157 0.00535794 0.00188598 0.00229228 0.00184308 0.00224905 0.00229228 0.00285706 0.00224905 0.0027705 0.00184308 0.00224905 0.00175709 0.00214038 0.00224905 0.0027705 0.00214038 0.00268394 0.00435157 0.00535794 0.00423837 0.00527604 0.00423837 0.00527604 0.00412518 0.00510011 0.00130466 0.0013962 0.0017004 0.00178679 0.0013962 0.00148774 0.00178679 0.00188737 0.0017004 0.00178679 0.00209615 0.00227125 0.00178679 0.00188737 0.00227125 0.00240746 0.00412518 0.00510011 0.00383391 0.0048011 0.00383391 0.0048011 0.00354265 0.00440072 0.00148774 0.00153246 0.00188737 0.00197104 0.00153246 0.00157717 0.00197104 0.00202317 0.00188737 0.00197104 0.00240746 0.00253415 0.00197104 0.00202317 0.00253415 0.00258793 0.00354265 0.00440072 0.00307664 0.00388749 0.00307664 0.00388749 0.00261064 0.00322929 0.0107193 0.0118752 0.0123419 0.0136417 0.0107325 0.0123419 0.0119003 0.0136535 0.0123419 0.0136417 0.0136535 0.0151616 0.0146992 0.0154823 0.0163874 0.0172549 0.000890722 0.000895858 0.00123395 0.00121243 0.000895858 0.000900993 0.00121243 0.0011991 0.00123395 0.00121243 0.00157717 0.00160993 0.00121243 0.0011991 0.00160993 0.00159434 0.000900993 0.000868609 0.0011991 0.00117299 0.000868609 0.000836225 0.00117299 0.00111583 0.0011991 0.00117299 0.00159434 0.00156055 0.00117299 0.00111583 0.00156055 0.0014903 0.0195898 0.0195484 0.0207104 0.0206513 0.0195484 0.0191334 0.0206513 0.0202565 0.00157717 0.00160993 0.00202317 0.00205461 0.00160993 0.00159434 0.00205461 0.00203887 0.00202317 0.00205461 0.00258793 0.00261162 0.00205461 0.00203887 0.00261162 0.00263531 0.00159434 0.00156055 0.00203887 0.00200492 0.00156055 0.0014903 0.00200492 0.00191094 0.00203887 0.00200492 0.00263531 0.0025595 0.00200492 0.00191094 0.0025595 0.00248369 0.000836225 0.000766755 0.00111583 0.00104413 0.000766755 0.000697286 0.00104413 0.000977444 0.00111583 0.00104413 0.0014903 0.0013964 0.00104413 0.000977444 0.0013964 0.0012576 0.0014903 0.0013964 0.00191094 0.00179688 0.0013964 0.0012576 0.00179688 0.0016215 0.00191094 0.00179688 0.00248369 0.00230039 0.00179688 0.0016215 0.00230039 0.00211709 0.0012576 0.00108092 0.0016215 0.00143133 0.00108092 0.000904236 0.00143133 0.0012228 0.0016215 0.00143133 0.00211709 0.00182922 0.00143133 0.0012228 0.00182922 0.00154136 0.01955 0.0206588 0.019158 0.0202733 0.0211018 0.0214127 0.0214267 0.0217897 0.0150882 0.0141258 0.0169128 0.01584 0.0141258 0.0127769 0.01584 0.0143883 0.0127769 0.01107 0.0143883 0.0124742 0.0191334 0.018373 0.0202565 0.0194173 0.018373 0.017199 0.0194173 0.018237 0.01584 0.0143883 0.017199 0.0156587 0.0143883 0.0124742 0.0156587 0.0135639 0.017199 0.0156587 0.018237 0.016515 0.0156587 0.0135639 0.016515 0.0143909 0.00944809 0.00760022 0.01107 0.00897114 0.00760022 0.00538487 0.00897114 0.00640165 0.01107 0.00897114 0.0124742 0.0101109 0.00897114 0.00640165 0.0101109 0.007223 0.00538487 0.00277782 0.00640165 0.00338308 0.0124742 0.0101109 0.0135639 0.0110128 0.0101109 0.007223 0.0110128 0.00787389 0.0135639 0.0110128 0.0143909 0.011648 0.0110128 0.00787389 0.011648 0.00831778 0.00119748 0.0014232 0.00110802 0.00133172 0.0014232 0.00175709 0.00133172 0.00164097 0.00110802 0.00133172 0.00101855 0.00120011 0.00133172 0.00164097 0.00120011 0.00148513 0.011648 0.00831778 0.0120761 0.00860818 0.0120761 0.00860818 0.0122679 0.00874857 0.0122679 0.00874857 0.0122821 0.00875612 0.0122821 0.00875612 0.0120737 0.00862281 0.0151254 0.0169411 0.0141605 0.0158672 0.019158 0.0202733 0.0183941 0.0194324 0.0183941 0.0194324 0.0172198 0.0182526 0.00175709 0.00214038 0.00164097 0.00201061 0.00214038 0.00268394 0.00201061 0.00248394 0.00164097 0.00201061 0.00148513 0.00181403 0.00201061 0.00248394 0.00181403 0.00228395 0.0141605 0.0158672 0.0128079 0.0144129 0.0128079 0.0144129 0.0110959 0.012495 0.0158672 0.0172198 0.0144129 0.0156779 0.0172198 0.0182526 0.0156779 0.0165295 0.0144129 0.0156779 0.012495 0.0135802 0.0156779 0.0165295 0.0135802 0.0144036 0.00947998 0.0110959 0.00762509 0.00899139 0.0110959 0.012495 0.00899139 0.0101272 0.00762509 0.00899139 0.00540179 0.00641551 0.00899139 0.0101272 0.00641551 0.00723419 0.00101855 0.00120011 0.000865682 0.00104973 0.00120011 0.00148513 0.00104973 0.00130177 0.000865682 0.00104973 0.000712818 0.000883382 0.00104973 0.00130177 0.000883382 0.00105395 0.012495 0.0135802 0.0101272 0.0110257 0.0135802 0.0144036 0.0110257 0.011658 0.0101272 0.0110257 0.00723419 0.00788275 0.0110257 0.011658 0.00788275 0.0083247 0.00540179 0.00641551 0.00278641 0.00339016 0.00148513 0.00181403 0.00130177 0.00159791 0.00181403 0.00228395 0.00159791 0.00197261 0.00130177 0.00159791 0.00105395 0.00135761 0.00159791 0.00197261 0.00135761 0.00166127 0.011658 0.0120836 0.0083247 0.00861344 0.0120836 0.0122735 0.00861344 0.00875248 0.00565664 0.00603154 0.00685399 0.00732347 0.00603154 0.00627507 0.00732347 0.007644 0.00685399 0.00732347 0.00836859 0.00897428 0.00732347 0.007644 0.00897428 0.00938846 0.00836859 0.00897428 0.00996364 0.0107467 0.00897428 0.00938846 0.0107467 0.0112576 0.00996364 0.0107467 0.0118752 0.0127994 0.0107467 0.0112576 0.0127994 0.0134148 0.0122735 0.012286 0.00875248 0.00875894 0.012286 0.0120764 0.00875894 0.00862476 0.0208839 0.0200458 0.0200474 0.0193201 0.0200458 0.0188528 0.0193201 0.0181084 0.0200474 0.0193201 0.0188555 0.0181095 0.00627507 0.00645502 0.007644 0.00787908 0.00645502 0.00647805 0.00787908 0.00792339 0.007644 0.00787908 0.00938846 0.00969501 0.00787908 0.00792339 0.00969501 0.00976515 0.00647805 0.00642685 0.00792339 0.00787258 0.00642685 0.00619685 0.00787258 0.00760854 0.00792339 0.00787258 0.00976515 0.00972145 0.00787258 0.00760854 0.00972145 0.00941816 0.00938846 0.00969501 0.0112576 0.0116443 0.00969501 0.00976515 0.0116443 0.011746 0.0112576 0.0116443 0.0134148 0.013886 0.0116443 0.011746 0.013886 0.0139976 0.00976515 0.00972145 0.011746 0.0117128 0.00972145 0.00941816 0.0117128 0.0113687 0.011746 0.0117128 0.0139976 0.013968 0.0117128 0.0113687 0.013968 0.013593 0.00154136 0.00118018 0.00203209 0.00153054 0.00118018 0.000819009 0.00153054 0.00107884 0.00203209 0.00153054 0.00252283 0.00198612 0.00153054 0.00107884 0.00198612 0.00133867 0.00252283 0.00198612 0.00315398 0.00247834 0.00198612 0.00133867 0.00247834 0.00169042 0.00315398 0.00247834 0.00402442 0.00317224 0.00247834 0.00169042 0.00317224 0.00217227 0.0188528 0.0170905 0.0181084 0.0165306 0.0170905 0.0149078 0.0165306 0.0143462 0.0181084 0.0165306 0.0170296 0.015534 0.0165306 0.0143462 0.015534 0.01353 0.0188555 0.0181095 0.0170936 0.0165323 0.0181095 0.0170296 0.0165323 0.0155347 0.0170936 0.0165323 0.0149109 0.0143481 0.0165323 0.0155347 0.0143481 0.0135309 0.00133867 0.000669335 0.00169042 0.000865904 0.000669335 0 0.000865904 0 0.00169042 0.000865904 0.00217227 0.0011115 0.000865904 0 0.0011115 0 0.00619685 0.00588531 0.00760854 0.00724114 0.00588531 0.00537998 0.00724114 0.00664289 0.00760854 0.00724114 0.00941816 0.00899218 0.00724114 0.00664289 0.00899218 0.0082841 0.00537998 0.00480117 0.00664289 0.0059352 0.00480117 0.00402442 0.0059352 0.00499625 0.00664289 0.0059352 0.0082841 0.00744014 0.0059352 0.00499625 0.00744014 0.00630349 0.00941816 0.00899218 0.0113687 0.0108793 0.00899218 0.0082841 0.0108793 0.0100539 0.0113687 0.0108793 0.013593 0.0130659 0.0108793 0.0100539 0.0130659 0.01212 0.0082841 0.00744014 0.0100539 0.00907107 0.00744014 0.00630349 0.00907107 0.00770054 0.0100539 0.00907107 0.01212 0.0110005 0.00907107 0.00770054 0.0110005 0.00944809 0.0170296 0.015534 0.0155347 0.0141958 0.015534 0.01353 0.0141958 0.0123903 0.0155347 0.0141958 0.0135309 0.0123907 0.0141958 0.0123903 0.0123907 0.0108466 0.00402442 0.00317224 0.00499625 0.00395465 0.00317224 0.00217227 0.00395465 0.00271321 0.00499625 0.00395465 0.00630349 0.0050333 0.00395465 0.00271321 0.0050333 0.00346164 0.005755 0.00693053 0.00613733 0.00740847 0.00693053 0.00842614 0.00740847 0.00904093 0.00613733 0.00740847 0.00638597 0.00773447 0.00740847 0.00904093 0.00773447 0.00946102 0.00842614 0.0100032 0.00904093 0.0107955 0.0100032 0.0119003 0.0107955 0.0128346 0.00904093 0.0107955 0.00946102 0.0113127 0.0107955 0.0128346 0.0113127 0.0134553 0.00207365 0.00245452 0.00238587 0.00280466 0.00245452 0.00283539 0.00280466 0.00330794 0.00238587 0.00280466 0.00269809 0.00320625 0.00280466 0.00330794 0.00320625 0.00380945 0.0149078 0.0120737 0.0143462 0.0116663 0.0120737 0.00862281 0.0116663 0.00834499 0.0143462 0.0116663 0.01353 0.0110155 0.0116663 0.00834499 0.0110155 0.0078966 0.00189688 0.00229748 0.00209507 0.00251026 0.00229748 0.00269809 0.00251026 0.0030364 0.00209507 0.00251026 0.00229327 0.00275548 0.00251026 0.0030364 0.00275548 0.00334595 0.00269809 0.00320625 0.0030364 0.00360707 0.00320625 0.00380945 0.00360707 0.00432781 0.0030364 0.00360707 0.00334595 0.00400197 0.00360707 0.00432781 0.00400197 0.00485018 0.01353 0.0110155 0.0123903 0.0101164 0.0110155 0.0078966 0.0101164 0.00727521 0.0123903 0.0101164 0.0108466 0.00888879 0.01