# vtk DataFile Version 3.0
#This file was generated by the deal.II library on 2021/4/23 at 0:45:38
ASCII
DATASET UNSTRUCTURED_GRID

FIELD FieldData 2
CYCLE 1 1 int
18
TIME 1 1 double
0.036
POINTS 1464 double
-1 -1 0
-0.75 -1 0
-1 -0.75 0
-0.75 -0.75 0
-0.75 -1 0
-0.5 -1 0
-0.75 -0.75 0
-0.5 -0.75 0
-1 -0.75 0
-0.75 -0.75 0
-1 -0.5 0
-0.75 -0.5 0
-0.75 -0.75 0
-0.5 -0.75 0
-0.75 -0.5 0
-0.5 -0.5 0
-0.5 -1 0
-0.25 -1 0
-0.5 -0.75 0
-0.25 -0.75 0
-0.25 -1 0
0 -1 0
-0.25 -0.75 0
0 -0.75 0
-0.5 -0.75 0
-0.25 -0.75 0
-0.5 -0.5 0
-0.25 -0.5 0
-0.25 -0.75 0
0 -0.75 0
-0.25 -0.5 0
0 -0.5 0
-1 -0.5 0
-0.75 -0.5 0
-1 -0.25 0
-0.75 -0.25 0
-0.75 -0.5 0
-0.5 -0.5 0
-0.75 -0.25 0
-0.5 -0.25 0
-1 -0.25 0
-0.75 -0.25 0
-1 0 0
-0.75 0 0
-0.75 -0.25 0
-0.5 -0.25 0
-0.75 0 0
-0.5 0 0
-0.5 -0.5 0
-0.25 -0.5 0
-0.5 -0.25 0
-0.25 -0.25 0
-0.25 -0.5 0
0 -0.5 0
-0.25 -0.25 0
0 -0.25 0
-0.5 -0.25 0
-0.25 -0.25 0
-0.5 0 0
-0.25 0 0
-0.25 -0.25 0
0 -0.25 0
-0.25 0 0
0 0 0
0 -1 0
0.25 -1 0
0 -0.75 0
0.25 -0.75 0
-1 0 0
-0.75 0 0
-1 0.25 0
-0.75 0.25 0
-0.75 0 0
-0.5 0 0
-0.75 0.25 0
-0.5 0.25 0
-1 0.25 0
-0.75 0.25 0
-1 0.5 0
-0.75 0.5 0
-0.75 0.25 0
-0.5 0.25 0
-0.75 0.5 0
-0.5 0.5 0
-0.5 0 0
-0.25 0 0
-0.5 0.25 0
-0.25 0.25 0
-0.25 0 0
0 0 0
-0.25 0.25 0
0 0.25 0
-0.5 0.25 0
-0.25 0.25 0
-0.5 0.5 0
-0.25 0.5 0
-0.25 0.25 0
0 0.25 0
-0.25 0.5 0
0 0.5 0
-1 0.5 0
-0.75 0.5 0
-1 0.75 0
-0.75 0.75 0
-0.75 0.5 0
-0.5 0.5 0
-0.75 0.75 0
-0.5 0.75 0
-1 0.75 0
-0.75 0.75 0
-1 1 0
-0.75 1 0
-0.75 0.75 0
-0.5 0.75 0
-0.75 1 0
-0.5 1 0
-0.5 0.5 0
-0.25 0.5 0
-0.5 0.75 0
-0.25 0.75 0
-0.25 0.5 0
0 0.5 0
-0.25 0.75 0
0 0.75 0
-0.5 0.75 0
-0.25 0.75 0
-0.5 1 0
-0.25 1 0
-0.25 0.75 0
0 0.75 0
-0.25 1 0
0 1 0
0.25 -0.75 0
0.375 -0.75 0
0.25 -0.625 0
0.375 -0.625 0
0.5 -1 0
0.625 -1 0
0.5 -0.875 0
0.625 -0.875 0
0.625 -1 0
0.75 -1 0
0.625 -0.875 0
0.75 -0.875 0
0.5 -0.875 0
0.625 -0.875 0
0.5 -0.75 0
0.625 -0.75 0
0.625 -0.875 0
0.75 -0.875 0
0.625 -0.75 0
0.75 -0.75 0
0.75 -1 0
0.875 -1 0
0.75 -0.875 0
0.875 -0.875 0
0.875 -1 0
1 -1 0
0.875 -0.875 0
1 -0.875 0
0.75 -0.875 0
0.875 -0.875 0
0.75 -0.75 0
0.875 -0.75 0
0.875 -0.875 0
1 -0.875 0
0.875 -0.75 0
1 -0.75 0
0 -0.5 0
0.125 -0.5 0
0 -0.375 0
0.125 -0.375 0
0.125 -0.5 0
0.25 -0.5 0
0.125 -0.375 0
0.25 -0.375 0
0 -0.375 0
0.125 -0.375 0
0 -0.25 0
0.125 -0.25 0
0.125 -0.375 0
0.25 -0.375 0
0.125 -0.25 0
0.25 -0.25 0
0 -0.25 0
0.125 -0.25 0
0 -0.125 0
0.125 -0.125 0
0.125 -0.25 0
0.25 -0.25 0
0.125 -0.125 0
0.25 -0.125 0
0 -0.125 0
0.125 -0.125 0
0 0 0
0.125 0 0
0.125 -0.125 0
0.25 -0.125 0
0.125 0 0
0.25 0 0
0.25 -1 0
0.375 -1 0
0.25 -0.875 0
0.375 -0.875 0
0.375 -1 0
0.5 -1 0
0.375 -0.875 0
0.5 -0.875 0
0.25 -0.875 0
0.375 -0.875 0
0.25 -0.75 0
0.375 -0.75 0
0.375 -0.875 0
0.5 -0.875 0
0.375 -0.75 0
0.5 -0.75 0
0 -0.75 0
0.125 -0.75 0
0 -0.625 0
0.125 -0.625 0
0.125 -0.75 0
0.25 -0.75 0
0.125 -0.625 0
0.25 -0.625 0
0 -0.625 0
0.125 -0.625 0
0 -0.5 0
0.125 -0.5 0
0.125 -0.625 0
0.25 -0.625 0
0.125 -0.5 0
0.25 -0.5 0
0.8125 -0.4375 0
0.875 -0.4375 0
0.8125 -0.375 0
0.875 -0.375 0
0.8125 -0.375 0
0.875 -0.375 0
0.8125 -0.3125 0
0.875 -0.3125 0
0.875 -0.375 0
0.9375 -0.375 0
0.875 -0.3125 0
0.9375 -0.3125 0
0.875 -0.3125 0
0.9375 -0.3125 0
0.875 -0.25 0
0.9375 -0.25 0
0.5625 -0.1875 0
0.625 -0.1875 0
0.5625 -0.125 0
0.625 -0.125 0
0.625 -0.1875 0
0.6875 -0.1875 0
0.625 -0.125 0
0.6875 -0.125 0
0.625 -0.125 0
0.6875 -0.125 0
0.625 -0.0625 0
0.6875 -0.0625 0
0.6875 -0.125 0
0.75 -0.125 0
0.6875 -0.0625 0
0.75 -0.0625 0
0.8125 -0.1875 0
0.875 -0.1875 0
0.8125 -0.125 0
0.875 -0.125 0
0.875 -0.25 0
0.9375 -0.25 0
0.875 -0.1875 0
0.9375 -0.1875 0
0.875 -0.1875 0
0.9375 -0.1875 0
0.875 -0.125 0
0.9375 -0.125 0
0.75 -0.125 0
0.8125 -0.125 0
0.75 -0.0625 0
0.8125 -0.0625 0
0.8125 -0.125 0
0.875 -0.125 0
0.8125 -0.0625 0
0.875 -0.0625 0
0.5 -0.5 0
0.5625 -0.5 0
0.5 -0.4375 0
0.5625 -0.4375 0
0.9375 -0.0625 0
1 -0.0625 0
0.9375 0 0
1 0 0
0.625 -0.75 0
0.6875 -0.75 0
0.625 -0.6875 0
0.6875 -0.6875 0
0.6875 -0.75 0
0.75 -0.75 0
0.6875 -0.6875 0
0.75 -0.6875 0
0.625 -0.6875 0
0.6875 -0.6875 0
0.625 -0.625 0
0.6875 -0.625 0
0.6875 -0.6875 0
0.75 -0.6875 0
0.6875 -0.625 0
0.75 -0.625 0
0.6875 -0.625 0
0.75 -0.625 0
0.6875 -0.5625 0
0.75 -0.5625 0
0.625 -0.5625 0
0.6875 -0.5625 0
0.625 -0.5 0
0.6875 -0.5 0
0.6875 -0.5625 0
0.75 -0.5625 0
0.6875 -0.5 0
0.75 -0.5 0
0.75 -0.75 0
0.8125 -0.75 0
0.75 -0.6875 0
0.8125 -0.6875 0
0.8125 -0.75 0
0.875 -0.75 0
0.8125 -0.6875 0
0.875 -0.6875 0
0.75 -0.6875 0
0.8125 -0.6875 0
0.75 -0.625 0
0.8125 -0.625 0
0.8125 -0.6875 0
0.875 -0.6875 0
0.8125 -0.625 0
0.875 -0.625 0
0.75 -0.5625 0
0.8125 -0.5625 0
0.75 -0.5 0
0.8125 -0.5 0
0.25 -0.375 0
0.3125 -0.375 0
0.25 -0.3125 0
0.3125 -0.3125 0
0.3125 -0.375 0
0.375 -0.375 0
0.3125 -0.3125 0
0.375 -0.3125 0
0.25 -0.3125 0
0.3125 -0.3125 0
0.25 -0.25 0
0.3125 -0.25 0
0.3125 -0.3125 0
0.375 -0.3125 0
0.3125 -0.25 0
0.375 -0.25 0
0.4375 -0.375 0
0.5 -0.375 0
0.4375 -0.3125 0
0.5 -0.3125 0
0.375 -0.3125 0
0.4375 -0.3125 0
0.375 -0.25 0
0.4375 -0.25 0
0.4375 -0.3125 0
0.5 -0.3125 0
0.4375 -0.25 0
0.5 -0.25 0
0.25 -0.25 0
0.3125 -0.25 0
0.25 -0.1875 0
0.3125 -0.1875 0
0.3125 -0.25 0
0.375 -0.25 0
0.3125 -0.1875 0
0.375 -0.1875 0
0.25 -0.1875 0
0.3125 -0.1875 0
0.25 -0.125 0
0.3125 -0.125 0
0.3125 -0.1875 0
0.375 -0.1875 0
0.3125 -0.125 0
0.375 -0.125 0
0.375 -0.25 0
0.4375 -0.25 0
0.375 -0.1875 0
0.4375 -0.1875 0
0.4375 -0.25 0
0.5 -0.25 0
0.4375 -0.1875 0
0.5 -0.1875 0
0.5 -0.75 0
0.5625 -0.75 0
0.5 -0.6875 0
0.5625 -0.6875 0
0.5625 -0.75 0
0.625 -0.75 0
0.5625 -0.6875 0
0.625 -0.6875 0
0.5 -0.6875 0
0.5625 -0.6875 0
0.5 -0.625 0
0.5625 -0.625 0
0.5625 -0.6875 0
0.625 -0.6875 0
0.5625 -0.625 0
0.625 -0.625 0
0.5 -0.625 0
0.5625 -0.625 0
0.5 -0.5625 0
0.5625 -0.5625 0
0.5625 -0.625 0
0.625 -0.625 0
0.5625 -0.5625 0
0.625 -0.5625 0
0.5 -0.5625 0
0.5625 -0.5625 0
0.5 -0.5 0
0.5625 -0.5 0
0.5625 -0.5625 0
0.625 -0.5625 0
0.5625 -0.5 0
0.625 -0.5 0
0.875 -0.75 0
0.9375 -0.75 0
0.875 -0.6875 0
0.9375 -0.6875 0
0.9375 -0.75 0
1 -0.75 0
0.9375 -0.6875 0
1 -0.6875 0
0.875 -0.6875 0
0.9375 -0.6875 0
0.875 -0.625 0
0.9375 -0.625 0
0.9375 -0.6875 0
1 -0.6875 0
0.9375 -0.625 0
1 -0.625 0
0.875 -0.625 0
0.9375 -0.625 0
0.875 -0.5625 0
0.9375 -0.5625 0
0.9375 -0.625 0
1 -0.625 0
0.9375 -0.5625 0
1 -0.5625 0
0.875 -0.5625 0
0.9375 -0.5625 0
0.875 -0.5 0
0.9375 -0.5 0
0.9375 -0.5625 0
1 -0.5625 0
0.9375 -0.5 0
1 -0.5 0
0.25 -0.5 0
0.3125 -0.5 0
0.25 -0.4375 0
0.3125 -0.4375 0
0.3125 -0.5 0
0.375 -0.5 0
0.3125 -0.4375 0
0.375 -0.4375 0
0.25 -0.4375 0
0.3125 -0.4375 0
0.25 -0.375 0
0.3125 -0.375 0
0.3125 -0.4375 0
0.375 -0.4375 0
0.3125 -0.375 0
0.375 -0.375 0
0.375 -0.5 0
0.4375 -0.5 0
0.375 -0.4375 0
0.4375 -0.4375 0
0.4375 -0.5 0
0.5 -0.5 0
0.4375 -0.4375 0
0.5 -0.4375 0
0.375 -0.4375 0
0.4375 -0.4375 0
0.375 -0.375 0
0.4375 -0.375 0
0.4375 -0.4375 0
0.5 -0.4375 0
0.4375 -0.375 0
0.5 -0.375 0
0.25 -0.125 0
0.3125 -0.125 0
0.25 -0.0625 0
0.3125 -0.0625 0
0.3125 -0.125 0
0.375 -0.125 0
0.3125 -0.0625 0
0.375 -0.0625 0
0.25 -0.0625 0
0.3125 -0.0625 0
0.25 0 0
0.3125 0 0
0.3125 -0.0625 0
0.375 -0.0625 0
0.3125 0 0
0.375 0 0
0.375 -0.125 0
0.4375 -0.125 0
0.375 -0.0625 0
0.4375 -0.0625 0
0.4375 -0.125 0
0.5 -0.125 0
0.4375 -0.0625 0
0.5 -0.0625 0
0.375 -0.0625 0
0.4375 -0.0625 0
0.375 0 0
0.4375 0 0
0.4375 -0.0625 0
0.5 -0.0625 0
0.4375 0 0
0.5 0 0
0.375 -0.75 0
0.4375 -0.75 0
0.375 -0.6875 0
0.4375 -0.6875 0
0.4375 -0.75 0
0.5 -0.75 0
0.4375 -0.6875 0
0.5 -0.6875 0
0.375 -0.6875 0
0.4375 -0.6875 0
0.375 -0.625 0
0.4375 -0.625 0
0.4375 -0.6875 0
0.5 -0.6875 0
0.4375 -0.625 0
0.5 -0.625 0
0.25 -0.625 0
0.3125 -0.625 0
0.25 -0.5625 0
0.3125 -0.5625 0
0.3125 -0.625 0
0.375 -0.625 0
0.3125 -0.5625 0
0.375 -0.5625 0
0.25 -0.5625 0
0.3125 -0.5625 0
0.25 -0.5 0
0.3125 -0.5 0
0.3125 -0.5625 0
0.375 -0.5625 0
0.3125 -0.5 0
0.375 -0.5 0
0.375 -0.625 0
0.4375 -0.625 0
0.375 -0.5625 0
0.4375 -0.5625 0
0.4375 -0.625 0
0.5 -0.625 0
0.4375 -0.5625 0
0.5 -0.5625 0
0.375 -0.5625 0
0.4375 -0.5625 0
0.375 -0.5 0
0.4375 -0.5 0
0.4375 -0.5625 0
0.5 -0.5625 0
0.4375 -0.5 0
0.5 -0.5 0
0.75 -0.5 0
0.78125 -0.5 0
0.75 -0.46875 0
0.78125 -0.46875 0
0.78125 -0.5 0
0.8125 -0.5 0
0.78125 -0.46875 0
0.8125 -0.46875 0
0.75 -0.46875 0
0.78125 -0.46875 0
0.75 -0.4375 0
0.78125 -0.4375 0
0.78125 -0.46875 0
0.8125 -0.46875 0
0.78125 -0.4375 0
0.8125 -0.4375 0
0.8125 -0.5 0
0.84375 -0.5 0
0.8125 -0.46875 0
0.84375 -0.46875 0
0.84375 -0.5 0
0.875 -0.5 0
0.84375 -0.46875 0
0.875 -0.46875 0
0.8125 -0.46875 0
0.84375 -0.46875 0
0.8125 -0.4375 0
0.84375 -0.4375 0
0.84375 -0.46875 0
0.875 -0.46875 0
0.84375 -0.4375 0
0.875 -0.4375 0
0.75 -0.4375 0
0.78125 -0.4375 0
0.75 -0.40625 0
0.78125 -0.40625 0
0.78125 -0.4375 0
0.8125 -0.4375 0
0.78125 -0.40625 0
0.8125 -0.40625 0
0.75 -0.40625 0
0.78125 -0.40625 0
0.75 -0.375 0
0.78125 -0.375 0
0.78125 -0.40625 0
0.8125 -0.40625 0
0.78125 -0.375 0
0.8125 -0.375 0
0.75 -0.375 0
0.78125 -0.375 0
0.75 -0.34375 0
0.78125 -0.34375 0
0.78125 -0.375 0
0.8125 -0.375 0
0.78125 -0.34375 0
0.8125 -0.34375 0
0.75 -0.34375 0
0.78125 -0.34375 0
0.75 -0.3125 0
0.78125 -0.3125 0
0.78125 -0.34375 0
0.8125 -0.34375 0
0.78125 -0.3125 0
0.8125 -0.3125 0
0.75 -0.3125 0
0.78125 -0.3125 0
0.75 -0.28125 0
0.78125 -0.28125 0
0.78125 -0.3125 0
0.8125 -0.3125 0
0.78125 -0.28125 0
0.8125 -0.28125 0
0.75 -0.28125 0
0.78125 -0.28125 0
0.75 -0.25 0
0.78125 -0.25 0
0.78125 -0.28125 0
0.8125 -0.28125 0
0.78125 -0.25 0
0.8125 -0.25 0
0.8125 -0.3125 0
0.84375 -0.3125 0
0.8125 -0.28125 0
0.84375 -0.28125 0
0.84375 -0.3125 0
0.875 -0.3125 0
0.84375 -0.28125 0
0.875 -0.28125 0
0.8125 -0.28125 0
0.84375 -0.28125 0
0.8125 -0.25 0
0.84375 -0.25 0
0.84375 -0.28125 0
0.875 -0.28125 0
0.84375 -0.25 0
0.875 -0.25 0
0.9375 -0.375 0
0.96875 -0.375 0
0.9375 -0.34375 0
0.96875 -0.34375 0
0.96875 -0.375 0
1 -0.375 0
0.96875 -0.34375 0
1 -0.34375 0
0.9375 -0.34375 0
0.96875 -0.34375 0
0.9375 -0.3125 0
0.96875 -0.3125 0
0.96875 -0.34375 0
1 -0.34375 0
0.96875 -0.3125 0
1 -0.3125 0
0.9375 -0.3125 0
0.96875 -0.3125 0
[...]
POINT_DATA 1464
SCALARS U double 1
LOOKUP_TABLE default
0 0 0 1.60352e-07 0 0 1.60352e-07 1.04092e-06 0 1.60352e-07 0 3.61865e-07 1.60352e-07 1.04092e-06 3.61865e-07 3.06695e-06 0 0 1.04092e-06 -8.83942e-06 0 0 -8.83942e-06 5.40052e-06 1.04092e-06 -8.83942e-06 3.06695e-06 -2.72254e-05 -8.83942e-06 5.40052e-06 -2.72254e-05 6.24957e-05 0 3.61865e-07 0 6.05175e-07 3.61865e-07 3.06695e-06 6.05175e-07 1.47941e-06 0 6.05175e-07 0 3.83094e-07 6.05175e-07 1.47941e-06 3.83094e-07 -4.38673e-07 3.06695e-06 -2.72254e-05 1.47941e-06 -2.21069e-05 -2.72254e-05 6.24957e-05 -2.21069e-05 7.69285e-05 1.47941e-06 -2.21069e-05 -4.38673e-07 -2.01937e-06 -2.21069e-05 7.69285e-05 -2.01937e-06 0 0 0 5.40052e-06 0.000331023 0 3.83094e-07 0 2.04523e-09 3.83094e-07 -4.38673e-07 2.04523e-09 1.10048e-07 0 2.04523e-09 0 -5.05628e-09 2.04523e-09 1.10048e-07 -5.05628e-09 4.00454e-09 -4.38673e-07 -2.01937e-06 1.10048e-07 -1.48107e-07 -2.01937e-06 0 -1.48107e-07 0 1.10048e-07 -1.48107e-07 4.00454e-09 1.06481e-07 -1.48107e-07 0 1.06481e-07 0 0 -5.05628e-09 0 5.46955e-10 -5.05628e-09 4.00454e-09 5.46955e-10 -2.9828e-09 0 5.46955e-10 0 0 5.46955e-10 -2.9828e-09 0 0 4.00454e-09 1.06481e-07 -2.9828e-09 -2.00649e-08 1.06481e-07 0 -2.00649e-08 0 -2.9828e-09 -2.00649e-08 0 0 -2.00649e-08 0 0 0 0.000331023 0.000791738 0.000782576 0.00187664 0 0 0.000417425 0.000510246 0 0 0.000510246 0.000484004 0.000417425 0.000510246 0.00137473 0.00180475 0.000510246 0.000484004 0.00180475 0.00177395 0 0 0.000484004 0.000294999 0 0 0.000294999 0 0.000484004 0.000294999 0.00177395 0.00113563 0.000294999 0 0.00113563 0 6.24957e-05 0.000397305 6.97121e-05 0.000495113 0.000397305 0.00135931 0.000495113 0.00178965 6.97121e-05 0.000495113 7.69285e-05 0.000475346 0.000495113 0.00178965 0.000475346 0.001761 7.69285e-05 0.000475346 3.84642e-05 0.000292472 0.000475346 0.001761 0.000292472 0.00112819 3.84642e-05 0.000292472 0 0 0.000292472 0.00112819 0 0 0 0 0.000165512 0.000269087 0 0 0.000269087 0.000417425 0.000165512 0.000269087 0.000331023 0.000791738 0.000269087 0.000417425 0.000791738 0.00137473 5.40052e-06 0.000168212 3.39481e-05 0.000253657 0.000168212 0.000331023 0.000253657 0.000782576 3.39481e-05 0.000253657 6.24957e-05 0.000397305 0.000253657 0.000782576 0.000397305 0.00135931 0.0152746 0.0122596 0.0176633 0.0142967 0.0176633 0.0142967 0.018627 0.0150812 0.0142967 0.00853002 0.0150812 0.00901366 0.0150812 0.00901366 0.0148512 0.00892664 0.0152732 0.0176633 0.0122588 0.0142968 0.0176633 0.0186271 0.0142968 0.0150813 0.0142968 0.0150813 0.00853006 0.00901375 0.0150813 0.0148513 0.00901375 0.00892669 0.0168451 0.0137595 0.0137595 0.0113274 0.0148512 0.00892664 0.0137595 0.00830645 0.0137595 0.00830645 0.0113274 0.00688388 0.0148513 0.0137595 0.00892669 0.00830647 0.0137595 0.0113274 0.00830647 0.00688389 0.00807697 0.0106401 0.0106398 0.0140627 0.00460041 0 0 0 0.00180475 0.00178935 0.00299205 0.00316548 0.00178935 0.00177395 0.00316548 0.00302112 0.00299205 0.00316548 0.00499898 0.00517623 0.00316548 0.00302112 0.00517623 0.00502831 0.00517623 0.00502831 0.0083113 0.00804553 0.00781533 0.0083113 0.0120928 0.0127134 0.0083113 0.00804553 0.0127134 0.0124884 0.00177395 0.00145479 0.00302112 0.00263455 0.00145479 0.00113563 0.00263455 0.00191498 0.00302112 0.00263455 0.00502831 0.00445201 0.00263455 0.00191498 0.00445201 0.00334687 0.00804553 0.00721959 0.0124884 0.0112001 0.00178965 0.00298364 0.00177533 0.00315772 0.00298364 0.00499528 0.00315772 0.00517424 0.00177533 0.00315772 0.001761 0.00301109 0.00315772 0.00517424 0.00301109 0.00503128 0.00781453 0.0120927 0.00831138 0.0127139 0.00517424 0.00831138 0.00503128 0.0080525 0.00831138 0.0127139 0.0080525 0.012484 0.001761 0.00301109 0.0014446 0.0026321 0.00301109 0.00503128 0.0026321 0.00439406 0.0014446 0.0026321 0.00112819 0.0019069 0.0026321 0.00439406 0.0019069 0.00335875 0.00503128 0.0080525 0.00439406 0.00715006 0.0080525 0.012484 0.00715006 0.0112081 0.00137473 0.00158974 0.00224417 0.00269588 0.00158974 0.00180475 0.00269588 0.00299205 0.00224417 0.00269588 0.00359339 0.00439571 0.00269588 0.00299205 0.00439571 0.00499898 0.00359339 0.00439571 0.00547223 0.00684195 0.00439571 0.00499898 0.00684195 0.00781533 0.00547223 0.00684195 0.00807697 0.0106401 0.00684195 0.00781533 0.0106401 0.0120928 0.00113563 0.000567817 0.00191498 0.00102984 0.000567817 0 0.00102984 0 0.00191498 0.00102984 0.00334687 0.00178803 0.00102984 0 0.00178803 0 0.00334687 0.00178803 0.00540081 0.00300125 0.00178803 0 0.00300125 0 0.00540081 0.00300125 0.00889814 0.0053664 0.00300125 0 0.0053664 0 0.00135931 0.00223609 0.00157448 0.00268709 0.00223609 0.00358994 0.00268709 0.00439188 0.00157448 0.00268709 0.00178965 0.00298364 0.00268709 0.00439188 0.00298364 0.00499528 0.00358994 0.0054713 0.00439188 0.00684075 0.0054713 0.00807697 0.00684075 0.0106398 0.00439188 0.00684075 0.00499528 0.00781453 0.00684075 0.0106398 0.00781453 0.0120927 0.00112819 0.0019069 0.000564096 0.00102856 0.0019069 0.00335875 0.00102856 0.00178696 0.000564096 0.00102856 0 0 0.00102856 0.00178696 0 0 0.00335875 0.00540111 0.00178696 0.00300239 0.00540111 0.00889681 0.00300239 0.00536626 0.00178696 0.00300239 0 0 0.00300239 0.00536626 0 0 0.000791738 0.00108323 0.00133419 0.00175192 0.00108323 0.00137473 0.00175192 0.00224417 0.00133419 0.00175192 0.00187664 0.00272631 0.00175192 0.00224417 0.00272631 0.00359339 0.000782576 0.00132961 0.00107094 0.00174519 0.00132961 0.00187664 0.00174519 0.00272394 0.00107094 0.00174519 0.00135931 0.00223609 0.00174519 0.00272394 0.00223609 0.00358994 0.00187664 0.00272631 0.00272394 0.00399551 0.00272631 0.00359339 0.00399551 0.00547223 0.00272394 0.00399551 0.00358994 0.0054713 0.00399551 0.00547223 0.0054713 0.00807697 0.0124884 0.0118442 0.0148329 0.0144055 0.0118442 0.0112001 0.0144055 0.0134485 0.0148329 0.0144055 0.0166188 0.0161114 0.0144055 0.0134485 0.0161114 0.0152746 0.0112001 0.0103556 0.0134485 0.0124385 0.0103556 0.00889814 0.0124385 0.0107418 0.0134485 0.0124385 0.0152746 0.0137671 0.0124385 0.0107418 0.0137671 0.0122596 0.0166188 0.0161114 0.0182158 0.0176946 0.0161114 0.0152746 0.0176946 0.016469 0.0182158 0.0176946 0.0192012 0.018615 0.0176946 0.016469 0.018615 0.0176633 0.0192012 0.018615 0.0200196 0.0194497 0.018615 0.0176633 0.0194497 0.0181451 0.0200196 0.0194497 0.0203023 0.0197051 0.0194497 0.0181451 0.0197051 0.018627 0.0203023 0.0197051 0.0204419 0.0198594 0.0197051 0.018627 0.0198594 0.0185878 0.0204419 0.0198594 0.0200395 0.0194586 0.0198594 0.0185878 0.0194586 0.0182446 0.018627 0.0168541 0.0185878 0.0171913 0.0168541 0.0150812 0.0171913 0.0149662 0.0185878 0.0171913 0.0182446 0.0168426 0.0171913 0.0149662 0.0168426 0.0148512 0.00853002 0.00477136 0.00877184 0.00496246 0.00477136 0 0.00496246 0 0.00877184 0.00496246 0.00901366 0.0050091 0.00496246 0 0.0050091 0 0.00901366 0.0050091 0.00897015 0.00505029 0.0050091 0 0.00505029 0 0.00897015 0.00505029 0.00892664 0.00496373 0.00505029 0 0.00496373 0 0.012484 0.014831 0.011846 0.0144033 0.014831 0.0166177 0.0144033 0.01611 0.011846 0.0144033 0.0112081 0.0134457 0.0144033 0.01611 0.0134457 0.0152732 0.0166177 0.0182154 0.01611 0.0176941 0.0182154 0.0192012 0.0176941 0.0186149 0.01611 0.0176941 0.0152732 0.0164683 0.0176941 0.0186149 0.0164683 0.0176633 0.0112081 0.0134457 0.0103507 0.0124369 0.0134457 0.0152732 0.0124369 0.013766 0.0103507 0.0124369 0.00889681 0.0107401 0.0124369 0.013766 0.0107401 0.0122588 0.0192012 0.0200197 0.0186149 0.0194498 0.0200197 0.0203024 0.0194498 0.0197052 0.0186149 0.0194498 0.0176633 0.0181452 0.0194498 0.0197052 0.0181452 0.0186271 0.0203024 0.020442 0.0197052 0.0198595 0.020442 0.0200395 0.0198595 0.0194587 0.0197052 0.0198595 0.0186271 0.0185879 0.0198595 0.0194587 0.0185879 0.0182446 0.0186271 0.0185879 0.0168542 0.0171914 0.0185879 0.0182446 0.0171914 0.0168426 0.0168542 0.0171914 0.0150813 0.0149663 0.0171914 0.0168426 0.0149663 0.0148513 0.00853006 0.0087719 0.00477139 0.0049625 0.0087719 0.00901375 0.0049625 0.00500914 0.00477139 0.0049625 0 0 0.0049625 0.00500914 0 0 0.00901375 0.00897022 0.00500914 0.00505033 0.00897022 0.00892669 0.00505033 0.00496376 0.00500914 0.00505033 0 0 0.00505033 0.00496376 0 0 0.0200395 0.0194586 0.0194587 0.0189249 0.0194586 0.0182446 0.0189249 0.0177359 0.0194587 0.0189249 0.0182446 0.0177359 0.0189249 0.0177359 0.0177359 0.0168451 0.0182446 0.0168426 0.0177359 0.0164293 0.0168426 0.0148512 0.0164293 0.0143054 0.0177359 0.0164293 0.0168451 0.0153023 0.0164293 0.0143054 0.0153023 0.0137595 0.0182446 0.0177359 0.0168426 0.0164294 0.0177359 0.0168451 0.0164294 0.0153023 0.0168426 0.0164294 0.0148513 0.0143054 0.0164294 0.0153023 0.0143054 0.0137595 0.00892664 0.00496373 0.00861654 0.00487515 0.00496373 0 0.00487515 0 0.00861654 0.00487515 0.00830645 0.00463348 0.00487515 0 0.00463348 0 0.00830645 0.00463348 0.00759517 0.00438491 0.00463348 0 0.00438491 0 0.00759517 0.00438491 0.00688388 0.00391825 0.00438491 0 0.00391825 0 0.00892669 0.00861658 0.00496376 0.00487516 0.00861658 0.00830647 0.00487516 0.00463349 0.00496376 0.00487516 0 0 0.00487516 0.00463349 0 0 0.00830647 0.00759518 0.00463349 0.00438491 0.00759518 0.00688389 0.00438491 0.00391826 0.00463349 0.00438491 0 0 0.00438491 0.00391826 0 0 0.0106401 0.0113664 0.0123514 0.0136363 0.0113664 0.0120928 0.0136363 0.0143136 0.0123514 0.0136363 0.0140627 0.015236 0.0136363 0.0143136 0.015236 0.0160392 0.0106398 0.0123513 0.0113663 0.0136364 0.0123513 0.0140627 0.0136364 0.015236 0.0113663 0.0136364 0.0120927 0.0143137 0.0136364 0.015236 0.0143137 0.0160393 0.0140627 0.015236 0.015236 0.016703 0.015236 0.0160392 0.016703 0.0175518 0.015236 0.016703 0.0160393 0.0175518 0.016703 0.0175518 0.0175518 0.0184672 0.0120928 0.0124031 0.0143136 0.014931 0.0124031 0.0127134 0.014931 0.0150899 0.0143136 0.014931 0.0160392 0.0166894 0.014931 0.0150899 0.0166894 0.0169025 0.0127134 0.0126009 0.0150899 0.015192 0.0126009 0.0124884 0.015192 0.0148329 0.0150899 0.015192 0.0169025 0.0169874 0.015192 0.0148329 0.0169874 0.0166188 0.0160392 0.0166894 0.0175518 0.018271 0.0166894 0.0169025 0.018271 0.0185062 0.0175518 0.018271 0.0184672 0.0192375 0.018271 0.0185062 0.0192375 0.0194903 0.0169025 0.0169874 0.0185062 0.0186122 0.0169874 0.0166188 0.0186122 0.0182158 0.0185062 0.0186122 0.0194903 0.0196092 0.0186122 0.0182158 0.0196092 0.0192012 0.0120927 0.0143137 0.0124033 0.0149311 0.0143137 0.0160393 0.0149311 0.0166894 0.0124033 0.0149311 0.0127139 0.0150895 0.0149311 0.0166894 0.0150895 0.0169022 0.0160393 0.0175518 0.0166894 0.018271 0.0175518 0.0184672 0.018271 0.0192376 0.0166894 0.018271 0.0169022 0.0185061 0.018271 0.0192376 0.0185061 0.0194903 0.0127139 0.0150895 0.0125989 0.0151907 0.0150895 0.0169022 0.0151907 0.0169868 0.0125989 0.0151907 0.012484 0.014831 0.0151907 0.0169868 0.014831 0.0166177 0.0169022 0.0185061 0.0169868 0.018612 0.0185061 0.0194903 0.018612 0.0196092 0.0169868 0.018612 0.0166177 0.0182154 0.018612 0.0196092 0.0182154 0.0192012 0.0184672 0.0192375 0.0192376 0.020049 0.0192375 0.0194903 0.020049 0.0203209 0.0192376 0.020049 0.0194903 0.020321 0.020049 0.0203209 0.020321 0.0206021 0.0194903 0.0196092 0.0203209 0.020446 0.0196092 0.0192012 0.020446 0.0200196 0.0203209 0.020446 0.0206021 0.0207311 0.020446 0.0200196 0.0207311 0.0203023 0.0194903 0.020321 0.0196092 0.0204461 0.020321 0.0206021 0.0204461 0.0207312 0.0196092 0.0204461 0.0192012 0.0200197 0.0204461 0.0207312 0.0200197 0.0203024 0.0206021 0.0207311 0.0207312 0.0208661 0.0207311 0.0203023 0.0208661 0.0204419 0.0207312 0.0208661 0.0203024 0.020442 0.0208661 0.0204419 0.020442 0.0200395 0.00889814 0.00713227 0.0107418 0.0089827 0.00713227 0.0053664 0.0089827 0.00644727 0.0107418 0.0089827 0.0122596 0.010107 0.0089827 0.00644727 0.010107 0.00724579 0.0053664 0.0026832 0.00644727 0.00367697 0.0026832 0 0.00367697 0 0.00644727 0.00367697 0.00724579 0.00414627 0.00367697 0 0.00414627 0 0.0122596 0.010107 0.0132782 0.0111625 0.010107 0.00724579 0.0111625 0.007983 0.0132782 0.0111625 0.0142967 0.0114134 0.0111625 0.007983 0.0114134 0.00853002 0.00724579 0.00414627 0.007983 0.00458046 0.00414627 0 0.00458046 0 0.007983 0.00458046 0.00853002 0.00477136 0.00458046 0 0.00477136 0 0.00889681 0.0107401 0.00713154 0.00898196 0.0107401 0.0122588 0.00898196 0.0101065 0.00713154 0.00898196 0.00536626 0.006447 0.00898196 0.0101065 0.006447 0.00724559 0.0122588 0.0132778 0.0101065 0.0111623 0.0132778 0.0142968 0.0111623 0.0114134 0.0101065 0.0111623 0.00724559 0.00798293 0.0111623 0.0114134 0.00798293 0.00853006 0.00536626 0.006447 0.00268313 0.00367692 0.006447 0.00724559 0.00367692 0.00414622 0.00268313 0.00367692 0 0 0.00367692 0.00414622 0 0 0.00724559 0.00798293 0.00414622 0.00458045 0.00798293 0.00853006 0.00458045 0.00477139 0.00414622 0.00458045 0 0 0.00458045 0.00477139 0 0 0.0113274 0.00910565 0.00910566 0.00799756 0.00910565 0.00688388 0.00799756 0.0057619 0.00910566 0.00799756 0.00688389 0.0057619 0.00799756 0.0057619 0.0057619 0.00460041 0.00688388 0.00391825 0.0057619 0.00344492 0.00391825 0 0.00344492 0 0.0057619 0.00344492 0.00460041 0.0023002 0.00344492 0 0.0023002 0 0.00688389 0.0057619 0.00391826 0.00344492 0.0057619 0.00460041 0.00344492 0.0023002 0.00391826 0.00344492 0 0 0.00344492 0.0023002 0 0 0.00499898 0.0050876 0.00640715 0.0064855 0.0050876 0.00517623 0.0064855 0.00674376 0.00640715 0.0064855 0.00781533 0.00806332 0.0064855 0.00674376 0.00806332 0.0083113 0.00502831 0.00474016 0.00653692 0.00607717 0.00474016 0.00445201 0.00607717 0.00557675 0.00653692 0.00607717 0.00804553 0.00763256 0.00607717 0.00557675 0.00763256 0.00721959 0.00445201 0.00389944 0.00557675 0.00504172 0.00389944 0.00334687 0.00504172 0.00437384 0.00557675 0.00504172 0.00721959 0.00657251 0.00504172 0.00437384 0.00657251 0.00540081 0.00721959 0.00657251 0.00920983 0.00820452 0.00657251 0.00540081 0.00820452 0.00714948 0.00920983 0.00820452 0.0112001 0.0103556 0.00820452 0.00714948 0.0103556 0.00889814 0.00499528 0.00640491 0.00508476 0.00648419 0.00640491 0.00781453 0.00648419 0.00806296 0.00508476 0.00648419 0.00517424 0.00674281 0.00648419 0.00806296 0.00674281 0.00831138 0.00439406 0.00577206 0.00387641 0.00504052 0.00577206 0.00715006 0.00504052 0.00658607 0.00387641 0.00504052 0.00335875 0.00437993 0.00504052 0.00658607 0.00437993 0.00540111 0.00715006 0.00917906 0.00658607 0.00819945 0.00917906 0.0112081 0.00819945 0.0103507 0.00658607 0.00819945 0.00540111 0.00714896 0.00819945 0.0103507 0.00714896 0.00889681 
