<?xml version="1.0" ?> 
<!-- 
# vtk DataFile Version 3.0
#This file was generated by the deal.II library on 21:42:03 at 2021/4/29
-->
<VTKFile type="UnstructuredGrid" version="0.1" byte_order="LittleEndian">
<UnstructuredGrid>
<Piece NumberOfPoints="65536" NumberOfCells="16384" >
  <Points>
    <DataArray type="Float32" NumberOfComponents="3" format="ascii">
-1 -1 0
-0.984375 -1 0
-1 -0.984375 0
-0.984375 -0.984375 0
-0.984375 -1 0
-0.96875 -1 0
-0.984375 -0.984375 0
-0.96875 -0.984375 0
-1 -0.984375 0
-0.984375 -0.984375 0
-1 -0.96875 0
-0.984375 -0.96875 0
-0.984375 -0.984375 0
-0.96875 -0.984375 0
-0.984375 -0.96875 0
-0.96875 -0.96875 0
-0.96875 -1 0
-0.953125 -1 0
-0.96875 -0.984375 0
-0.953125 -0.984375 0
-0.953125 -1 0
-0.9375 -1 0
-0.953125 -0.984375 0
-0.9375 -0.984375 0
-0.96875 -0.984375 0
-0.953125 -0.984375 0
-0.96875 -0.96875 0
-0.953125 -0.96875 0
-0.953125 -0.984375 0
-0.9375 -0.984375 0
-0.953125 -0.96875 0
-0.9375 -0.96875 0
-1 -0.96875 0
-0.984375 -0.96875 0
-1 -0.953125 0
-0.984375 -0.953125 0
-0.984375 -0.96875 0
-0.96875 -0.96875 0
-0.984375 -0.953125 0
-0.96875 -0.953125 0
-1 -0.953125 0
-0.984375 -0.953125 0
-1 -0.9375 0
-0.984375 -0.9375 0
-0.984375 -0.953125 0
-0.96875 -0.953125 0
-0.984375 -0.9375 0
-0.96875 -0.9375 0
-0.96875 -0.96875 0
-0.953125 -0.96875 0
-0.96875 -0.953125 0
-0.953125 -0.953125 0
-0.953125 -0.96875 0
-0.9375 -0.96875 0
-0.953125 -0.953125 0
-0.9375 -0.953125 0
-0.96875 -0.953125 0
-0.953125 -0.953125 0
-0.96875 -0.9375 0
-0.953125 -0.9375 0
-0.953125 -0.953125 0
-0.9375 -0.953125 0
-0.953125 -0.9375 0
-0.9375 -0.9375 0
-0.9375 -1 0
-0.921875 -1 0
-0.9375 -0.984375 0
-0.921875 -0.984375 0
-0.921875 -1 0
-0.90625 -1 0
-0.921875 -0.984375 0
-0.90625 -0.984375 0
-0.9375 -0.984375 0
-0.921875 -0.984375 0
-0.9375 -0.96875 0
-0.921875 -0.96875 0
-0.921875 -0.984375 0
-0.90625 -0.984375 0
-0.921875 -0.96875 0
-0.90625 -0.96875 0
-0.90625 -1 0
-0.890625 -1 0
-0.90625 -0.984375 0
-0.890625 -0.984375 0
-0.890625 -1 0
-0.875 -1 0
-0.890625 -0.984375 0
-0.875 -0.984375 0
-0.90625 -0.984375 0
-0.890625 -0.984375 0
-0.90625 -0.96875 0
-0.890625 -0.96875 0
-0.890625 -0.984375 0
-0.875 -0.984375 0
-0.890625 -0.96875 0
-0.875 -0.96875 0
-0.9375 -0.96875 0
-0.921875 -0.96875 0
-0.9375 -0.953125 0
-0.921875 -0.953125 0
-0.921875 -0.96875 0
-0.90625 -0.96875 0
-0.921875 -0.953125 0
-0.90625 -0.953125 0
-0.9375 -0.953125 0
-0.921875 -0.953125 0
-0.9375 -0.9375 0
-0.921875 -0.9375 0
-0.921875 -0.953125 0
-0.90625 -0.953125 0
-0.921875 -0.9375 0
-0.90625 -0.9375 0
-0.90625 -0.96875 0
-0.890625 -0.96875 0
-0.90625 -0.953125 0
-0.890625 -0.953125 0
-0.890625 -0.96875 0
-0.875 -0.96875 0
-0.890625 -0.953125 0
-0.875 -0.953125 0
-0.90625 -0.953125 0
-0.890625 -0.953125 0
-0.90625 -0.9375 0
-0.890625 -0.9375 0
-0.890625 -0.953125 0
-0.875 -0.953125 0
-0.890625 -0.9375 0
-0.875 -0.9375 0
-1 -0.9375 0
-0.984375 -0.9375 0
-1 -0.921875 0
-0.984375 -0.921875 0
-0.984375 -0.9375 0
-0.96875 -0.9375 0
-0.984375 -0.921875 0
-0.96875 -0.921875 0
-1 -0.921875 0
-0.984375 -0.921875 0
-1 -0.90625 0
-0.984375 -0.90625 0
-0.984375 -0.921875 0
-0.96875 -0.921875 0
-0.984375 -0.90625 0
-0.96875 -0.90625 0
-0.96875 -0.9375 0
-0.953125 -0.9375 0
-0.96875 -0.921875 0
-0.953125 -0.921875 0
-0.953125 -0.9375 0
-0.9375 -0.9375 0
-0.953125 -0.921875 0
-0.9375 -0.921875 0
-0.96875 -0.921875 0
-0.953125 -0.921875 0
-0.96875 -0.90625 0
-0.953125 -0.90625 0
-0.953125 -0.921875 0
-0.9375 -0.921875 0
-0.953125 -0.90625 0
-0.9375 -0.90625 0
-1 -0.90625 0
-0.984375 -0.90625 0
-1 -0.890625 0
-0.984375 -0.890625 0
-0.984375 -0.90625 0
-0.96875 -0.90625 0
-0.984375 -0.890625 0
-0.96875 -0.890625 0
-1 -0.890625 0
-0.984375 -0.890625 0
-1 -0.875 0
-0.984375 -0.875 0
-0.984375 -0.890625 0
-0.96875 -0.890625 0
-0.984375 -0.875 0
-0.96875 -0.875 0
-0.96875 -0.90625 0
-0.953125 -0.90625 0
-0.96875 -0.890625 0
-0.953125 -0.890625 0
-0.953125 -0.90625 0
-0.9375 -0.90625 0
-0.953125 -0.890625 0
-0.9375 -0.890625 0
-0.96875 -0.890625 0
-0.953125 -0.890625 0
-0.96875 -0.875 0
-0.953125 -0.875 0
-0.953125 -0.890625 0
-0.9375 -0.890625 0
-0.953125 -0.875 0
-0.9375 -0.875 0
-0.9375 -0.9375 0
-0.921875 -0.9375 0
-0.9375 -0.921875 0
-0.921875 -0.921875 0
-0.921875 -0.9375 0
-0.90625 -0.9375 0
-0.921875 -0.921875 0
-0.90625 -0.921875 0
-0.9375 -0.921875 0
-0.921875 -0.921875 0
-0.9375 -0.90625 0
-0.921875 -0.90625 0
-0.921875 -0.921875 0
-0.90625 -0.921875 0
-0.921875 -0.90625 0
-0.90625 -0.90625 0
-0.90625 -0.9375 0
-0.890625 -0.9375 0
-0.90625 -0.921875 0
-0.890625 -0.921875 0
-0.890625 -0.9375 0
-0.875 -0.9375 0
-0.890625 -0.921875 0
-0.875 -0.921875 0
-0.90625 -0.921875 0
-0.890625 -0.921875 0
-0.90625 -0.90625 0
-0.890625 -0.90625 0
-0.890625 -0.921875 0
-0.875 -0.921875 0
-0.890625 -0.90625 0
-0.875 -0.90625 0
-0.9375 -0.90625 0
-0.921875 -0.90625 0
-0.9375 -0.890625 0
-0.921875 -0.890625 0
-0.921875 -0.90625 0
-0.90625 -0.90625 0
-0.921875 -0.890625 0
-0.90625 -0.890625 0
-0.9375 -0.890625 0
-0.921875 -0.890625 0
-0.9375 -0.875 0
-0.921875 -0.875 0
-0.921875 -0.890625 0
-0.90625 -0.890625 0
-0.921875 -0.875 0
-0.90625 -0.875 0
-0.90625 -0.90625 0
-0.890625 -0.90625 0
-0.90625 -0.890625 0
-0.890625 -0.890625 0
-0.890625 -0.90625 0
-0.875 -0.90625 0
-0.890625 -0.890625 0
-0.875 -0.890625 0
-0.90625 -0.890625 0
-0.890625 -0.890625 0
-0.90625 -0.875 0
-0.890625 -0.875 0
-0.890625 -0.890625 0
-0.875 -0.890625 0
-0.890625 -0.875 0
-0.875 -0.875 0
-0.875 -1 0
-0.859375 -1 0
-0.875 -0.984375 0
-0.859375 -0.984375 0
-0.859375 -1 0
-0.84375 -1 0
-0.859375 -0.984375 0
-0.84375 -0.984375 0
-0.875 -0.984375 0
-0.859375 -0.984375 0
-0.875 -0.96875 0
-0.859375 -0.96875 0
-0.859375 -0.984375 0
-0.84375 -0.984375 0
-0.859375 -0.96875 0
-0.84375 -0.96875 0
-0.84375 -1 0
-0.828125 -1 0
-0.84375 -0.984375 0
-0.828125 -0.984375 0
-0.828125 -1 0
-0.8125 -1 0
-0.828125 -0.984375 0
-0.8125 -0.984375 0
-0.84375 -0.984375 0
-0.828125 -0.984375 0
-0.84375 -0.96875 0
-0.828125 -0.96875 0
-0.828125 -0.984375 0
-0.8125 -0.984375 0
-0.828125 -0.96875 0
-0.8125 -0.96875 0
-0.875 -0.96875 0
-0.859375 -0.96875 0
-0.875 -0.953125 0
-0.859375 -0.953125 0
-0.859375 -0.96875 0
-0.84375 -0.96875 0
-0.859375 -0.953125 0
-0.84375 -0.953125 0
-0.875 -0.953125 0
-0.859375 -0.953125 0
-0.875 -0.9375 0
-0.859375 -0.9375 0
-0.859375 -0.953125 0
-0.84375 -0.953125 0
-0.859375 -0.9375 0
-0.84375 -0.9375 0
-0.84375 -0.96875 0
-0.828125 -0.96875 0
-0.84375 -0.953125 0
-0.828125 -0.953125 0
-0.828125 -0.96875 0
-0.8125 -0.96875 0
-0.828125 -0.953125 0
-0.8125 -0.953125 0
-0.84375 -0.953125 0
-0.828125 -0.953125 0
-0.84375 -0.9375 0
-0.828125 -0.9375 0
-0.828125 -0.953125 0
-0.8125 -0.953125 0
-0.828125 -0.9375 0
-0.8125 -0.9375 0
-0.8125 -1 0
-0.796875 -1 0
-0.8125 -0.984375 0
-0.796875 -0.984375 0
-0.796875 -1 0
-0.78125 -1 0
-0.796875 -0.984375 0
-0.78125 -0.984375 0
-0.8125 -0.984375 0
-0.796875 -0.984375 0
-0.8125 -0.96875 0
-0.796875 -0.96875 0
-0.796875 -0.984375 0
-0.78125 -0.984375 0
-0.796875 -0.96875 0
-0.78125 -0.96875 0
-0.78125 -1 0
-0.765625 -1 0
-0.78125 -0.984375 0
-0.765625 -0.984375 0
-0.765625 -1 0
-0.75 -1 0
-0.765625 -0.984375 0
-0.75 -0.984375 0
-0.78125 -0.984375 0
-0.765625 -0.984375 0
-0.78125 -0.96875 0
-0.765625 -0.96875 0
-0.765625 -0.984375 0
-0.75 -0.984375 0
-0.765625 -0.96875 0
-0.75 -0.96875 0
-0.8125 -0.96875 0
-0.796875 -0.96875 0
-0.8125 -0.953125 0
-0.796875 -0.953125 0
-0.796875 -0.96875 0
-0.78125 -0.96875 0
-0.796875 -0.953125 0
-0.78125 -0.953125 0
-0.8125 -0.953125 0
-0.796875 -0.953125 0
-0.8125 -0.9375 0
-0.796875 -0.9375 0
-0.796875 -0.953125 0
-0.78125 -0.953125 0
-0.796875 -0.9375 0
-0.78125 -0.9375 0
-0.78125 -0.96875 0
-0.765625 -0.96875 0
-0.78125 -0.953125 0
-0.765625 -0.953125 0
-0.765625 -0.96875 0
-0.75 -0.96875 0
-0.765625 -0.953125 0
-0.75 -0.953125 0
-0.78125 -0.953125 0
-0.765625 -0.953125 0
-0.78125 -0.9375 0
-0.765625 -0.9375 0
-0.765625 -0.953125 0
-0.75 -0.953125 0
-0.765625 -0.9375 0
-0.75 -0.9375 0
-0.875 -0.9375 0
-0.859375 -0.9375 0
-0.875 -0.921875 0
-0.859375 -0.921875 0
-0.859375 -0.9375 0
-0.84375 -0.9375 0
-0.859375 -0.921875 0
-0.84375 -0.921875 0
-0.875 -0.921875 0
-0.859375 -0.921875 0
-0.875 -0.90625 0
-0.859375 -0.90625 0
-0.859375 -0.921875 0
-0.84375 -0.921875 0
-0.859375 -0.90625 0
-0.84375 -0.90625 0
-0.84375 -0.9375 0
-0.828125 -0.9375 0
-0.84375 -0.921875 0
-0.828125 -0.921875 0
-0.828125 -0.9375 0
-0.8125 -0.9375 0
-0.828125 -0.921875 0
-0.8125 -0.921875 0
-0.84375 -0.921875 0
-0.828125 -0.921875 0
-0.84375 -0.90625 0
-0.828125 -0.90625 0
-0.828125 -0.921875 0
-0.8125 -0.921875 0
-0.828125 -0.90625 0
-0.8125 -0.90625 0
-0.875 -0.90625 0
-0.859375 -0.90625 0
-0.875 -0.890625 0
-0.859375 -0.890625 0
-0.859375 -0.90625 0
-0.84375 -0.90625 0
-0.859375 -0.890625 0
-0.84375 -0.890625 0
-0.875 -0.890625 0
-0.859375 -0.890625 0
-0.875 -0.875 0
-0.859375 -0.875 0
-0.859375 -0.890625 0
-0.84375 -0.890625 0
-0.859375 -0.875 0
-0.84375 -0.875 0
-0.84375 -0.90625 0
-0.828125 -0.90625 0
-0.84375 -0.890625 0
-0.828125 -0.890625 0
-0.828125 -0.90625 0
-0.8125 -0.90625 0
-0.828125 -0.890625 0
-0.8125 -0.890625 0
-0.84375 -0.890625 0
-0.828125 -0.890625 0
-0.84375 -0.875 0
-0.828125 -0.875 0
-0.828125 -0.890625 0
-0.8125 -0.890625 0
-0.828125 -0.875 0
-0.8125 -0.875 0
-0.8125 -0.9375 0
-0.796875 -0.9375 0
-0.8125 -0.921875 0
-0.796875 -0.921875 0
-0.796875 -0.9375 0
-0.78125 -0.9375 0
-0.796875 -0.921875 0
-0.78125 -0.921875 0
-0.8125 -0.921875 0
-0.796875 -0.921875 0
-0.8125 -0.90625 0
-0.796875 -0.90625 0
-0.796875 -0.921875 0
-0.78125 -0.921875 0
-0.796875 -0.90625 0
-0.78125 -0.90625 0
-0.78125 -0.9375 0
-0.765625 -0.9375 0
-0.78125 -0.921875 0
-0.765625 -0.921875 0
-0.765625 -0.9375 0
-0.75 -0.9375 0
-0.765625 -0.921875 0
-0.75 -0.921875 0
-0.78125 -0.921875 0
-0.765625 -0.921875 0
-0.78125 -0.90625 0
-0.765625 -0.90625 0
-0.765625 -0.921875 0
-0.75 -0.921875 0
-0.765625 -0.90625 0
-0.75 -0.90625 0
-0.8125 -0.90625 0
-0.796875 -0.90625 0
-0.8125 -0.890625 0
-0.796875 -0.890625 0
-0.796875 -0.90625 0
[...]
  <PointData Scalars="scalars">
    <DataArray type="Float32" Name="U" format="ascii">
0 0 0 3.40694e-06 0 0 3.40694e-06 6.59368e-06 0 3.40694e-06 0 1.12274e-05 3.40694e-06 6.59368e-06 1.12274e-05 2.17353e-05 0 0 6.59368e-06 9.36343e-06 0 0 9.36343e-06 1.15628e-05 6.59368e-06 9.36343e-06 2.17353e-05 3.08799e-05 9.36343e-06 1.15628e-05 3.08799e-05 3.81573e-05 0 1.12274e-05 0 3.18449e-05 1.12274e-05 2.17353e-05 3.18449e-05 6.16839e-05 0 3.18449e-05 0 8.3007e-05 3.18449e-05 6.16839e-05 8.3007e-05 0.000160936 2.17353e-05 3.08799e-05 6.16839e-05 8.77169e-05 3.08799e-05 3.81573e-05 8.77169e-05 0.000108527 6.16839e-05 8.77169e-05 0.000160936 0.000229208 8.77169e-05 0.000108527 0.000229208 0.000284184 0 0 1.15628e-05 1.30954e-05 0 0 1.30954e-05 1.3928e-05 1.15628e-05 1.30954e-05 3.81573e-05 4.32492e-05 1.30954e-05 1.3928e-05 4.32492e-05 4.60415e-05 0 0 1.3928e-05 1.40877e-05 0 0 1.40877e-05 1.36531e-05 1.3928e-05 1.40877e-05 4.60415e-05 4.66183e-05 1.40877e-05 1.36531e-05 4.66183e-05 4.52316e-05 3.81573e-05 4.32492e-05 0.000108527 0.000123205 4.32492e-05 4.60415e-05 0.000123205 0.000131405 0.000108527 0.000123205 0.000284184 0.000323468 0.000123205 0.000131405 0.000323468 0.00034607 4.60415e-05 4.66183e-05 0.000131405 0.000133333 4.66183e-05 4.52316e-05 0.000133333 0.000129668 0.000131405 0.000133333 0.00034607 0.000352386 0.000133333 0.000129668 0.000352386 0.000344026 0 8.3007e-05 0 0.000198595 8.3007e-05 0.000160936 0.000198595 0.000385583 0 0.000198595 0 0.000432823 0.000198595 0.000385583 0.000432823 0.000842038 0.000160936 0.000229208 0.000385583 0.00055043 0.000229208 0.000284184 0.00055043 0.000684617 0.000385583 0.00055043 0.000842038 0.001206 0.00055043 0.000684617 0.001206 0.00150677 0 0.000432823 0 0.000852002 0.000432823 0.000842038 0.000852002 0.00166207 0 0.000852002 0 0.00150249 0.000852002 0.00166207 0.00150249 0.00294148 0.000842038 0.001206 0.00166207 0.00239116 0.001206 0.00150677 0.00239116 0.00300583 0.00166207 0.00239116 0.00294148 0.00425653 0.00239116 0.00300583 0.00425653 0.00539343 0.000284184 0.000323468 0.000684617 0.000782345 0.000323468 0.00034607 0.000782345 0.000840923 0.000684617 0.000782345 0.00150677 0.00173154 0.000782345 0.000840923 0.00173154 0.0018735 0.00034607 0.000352386 0.000840923 0.0008608 0.000352386 0.000344026 0.0008608 0.000845259 0.000840923 0.0008608 0.0018735 0.00193212 0.0008608 0.000845259 0.00193212 0.00191277 0.00150677 0.00173154 0.00300583 0.0034806 0.00173154 0.0018735 0.0034806 0.00379972 0.00300583 0.0034806 0.00539343 0.00630733 0.0034806 0.00379972 0.00630733 0.00696581 0.0018735 0.00193212 0.00379972 0.00395818 0.00193212 0.00191277 0.00395818 0.00396177 0.00379972 0.00395818 0.00696581 0.00735145 0.00395818 0.00396177 0.00735145 0.00746339 0 0 1.36531e-05 1.27394e-05 0 0 1.27394e-05 1.14817e-05 1.36531e-05 1.27394e-05 4.52316e-05 4.22553e-05 1.27394e-05 1.14817e-05 4.22553e-05 3.81306e-05 0 0 1.14817e-05 1.00182e-05 0 0 1.00182e-05 8.47681e-06 1.14817e-05 1.00182e-05 3.81306e-05 3.3312e-05 1.00182e-05 8.47681e-06 3.3312e-05 2.82209e-05 4.52316e-05 4.22553e-05 0.000129668 0.000121437 4.22553e-05 3.81306e-05 0.000121437 0.000109868 0.000129668 0.000121437 0.000344026 0.000323525 0.000121437 0.000109868 0.000323525 0.000293979 3.81306e-05 3.3312e-05 0.000109868 9.62396e-05 3.3312e-05 2.82209e-05 9.62396e-05 8.17499e-05 0.000109868 9.62396e-05 0.000293979 0.00025867 9.62396e-05 8.17499e-05 0.00025867 0.000220727 0 0 8.47681e-06 6.96405e-06 0 0 6.96405e-06 5.56008e-06 8.47681e-06 6.96405e-06 2.82209e-05 2.32118e-05 6.96405e-06 5.56008e-06 2.32118e-05 1.85525e-05 0 0 5.56008e-06 4.31712e-06 0 0 4.31712e-06 3.26161e-06 5.56008e-06 4.31712e-06 1.85525e-05 1.44194e-05 4.31712e-06 3.26161e-06 1.44194e-05 1.09035e-05 2.82209e-05 2.32118e-05 8.17499e-05 6.74176e-05 2.32118e-05 1.85525e-05 6.74176e-05 5.40234e-05 8.17499e-05 6.74176e-05 0.000220727 0.000182858 6.74176e-05 5.40234e-05 0.000182858 0.000147185 1.85525e-05 1.44194e-05 5.40234e-05 4.2091e-05 1.44194e-05 1.09035e-05 4.2091e-05 3.19008e-05 5.40234e-05 4.2091e-05 0.000147185 0.000115175 4.2091e-05 3.19008e-05 0.000115175 8.76542e-05 0.000344026 0.000323525 0.000845259 0.000799834 0.000323525 0.000293979 0.000799834 0.000731535 0.000845259 0.000799834 0.00191277 0.00182581 0.000799834 0.000731535 0.00182581 0.0016852 0.000293979 0.00025867 0.000731535 0.000648007 0.00025867 0.000220727 0.000648007 0.000556735 0.000731535 0.000648007 0.0016852 0.00150687 0.000648007 0.000556735 0.00150687 0.00130701 0.00191277 0.00182581 0.00396177 0.00382614 0.00182581 0.0016852 0.00382614 0.00357488 0.00396177 0.00382614 0.00746339 0.00731765 0.00382614 0.00357488 0.00731765 0.00694574 0.0016852 0.00150687 0.00357488 0.00323693 0.00150687 0.00130701 0.00323693 0.00284351 0.00357488 0.00323693 0.00694574 0.00639159 0.00323693 0.00284351 0.00639159 0.00570719 0.000220727 0.000182858 0.000556735 0.000464379 0.000182858 0.000147185 0.000464379 0.000376319 0.000556735 0.000464379 0.00130701 0.00110064 0.000464379 0.000376319 0.00110064 0.000900383 0.000147185 0.000115175 0.000376319 0.000296425 0.000115175 8.76542e-05 0.000296425 0.000227037 0.000376319 0.000296425 0.000900383 0.000715806 0.000296425 0.000227037 0.000715806 0.000553171 0.00130701 0.00110064 0.00284351 0.00242512 0.00110064 0.000900383 0.00242512 0.00200892 0.00284351 0.00242512 0.00570719 0.00494742 0.00242512 0.00200892 0.00494742 0.00416477 0.000900383 0.000715806 0.00200892 0.0016168 0.000715806 0.000553171 0.0016168 0.00126439 0.00200892 0.0016168 0.00416477 0.00340492 0.0016168 0.00126439 0.00340492 0.00270355 0 0.00150249 0 0.00235983 0.00150249 0.00294148 0.00235983 0.00464006 0 0.00235983 0 0.00330245 0.00235983 0.00464006 0.00330245 0.00652471 0.00294148 0.00425653 0.00464006 0.00676261 0.00425653 0.00539343 0.00676261 0.00865293 0.00464006 0.00676261 0.00652471 0.00958495 0.00676261 0.00865293 0.00958495 0.0123989 0 0.00330245 0 0.00417302 0.00330245 0.00652471 0.00417302 0.0082803 0 0.00417302 0 0.00491311 0.00417302 0.0082803 0.00491311 0.00977303 0.00652471 0.00958495 0.0082803 0.0122524 0.00958495 0.0123989 0.0122524 0.0160129 0.0082803 0.0122524 0.00977303 0.0145252 0.0122524 0.0160129 0.0145252 0.019111 0.00539343 0.00630733 0.00865293 0.010243 0.00630733 0.00696581 0.010243 0.0114752 0.00865293 0.010243 0.0123989 0.0148805 0.010243 0.0114752 0.0148805 0.0169453 0.00696581 0.00735145 0.0114752 0.0123072 0.00735145 0.00746339 0.0123072 0.0127167 0.0114752 0.0123072 0.0169453 0.0185159 0.0123072 0.0127167 0.0185159 0.0195297 0.0123989 0.0148805 0.0160129 0.0194756 0.0148805 0.0169453 0.0194756 0.0225432 0.0160129 0.0194756 0.019111 0.0234637 0.0194756 0.0225432 0.0234637 0.0275024 0.0169453 0.0185159 0.0225432 0.0251104 0.0185159 0.0195297 0.0251104 0.0270697 0.0225432 0.0251104 0.0275024 0.0311263 0.0251104 0.0270697 0.0311263 0.0342125 0 0.00491311 0 0.00560739 0.00491311 0.00977303 0.00560739 0.0111584 0 0.00560739 0 0.00630658 0.00560739 0.0111584 0.00630658 0.012556 0.00977303 0.0145252 0.0111584 0.016599 0.0145252 0.019111 0.016599 0.0218782 0.0111584 0.016599 0.012556 0.0186897 0.016599 0.0218782 0.0186897 0.0246491 0 0.00630658 0 0.00685786 0.00630658 0.012556 0.00685786 0.0136885 0 0.00685786 0 0.00709898 0.00685786 0.0136885 0.00709898 0.0142109 0.012556 0.0186897 0.0136885 0.0204556 0.0186897 0.0246491 0.0204556 0.027106 0.0136885 0.0204556 0.0142109 0.0213424 0.0204556 0.027106 0.0213424 0.028484 0.019111 0.0234637 0.0218782 0.0269482 0.0234637 0.0275024 0.0269482 0.0317589 0.0218782 0.0269482 0.0246491 0.0303785 0.0269482 0.0317589 0.0303785 0.0358307 0.0275024 0.0311263 0.0317589 0.036249 0.0311263 0.0342125 0.036249 0.040333 0.0317589 0.036249 0.0358307 0.0409682 0.036249 0.040333 0.0409682 0.0457559 0.0246491 0.0303785 0.027106 0.0335691 0.0303785 0.0358307 0.0335691 0.0397625 0.027106 0.0335691 0.028484 0.0355967 0.0335691 0.0397625 0.0355967 0.0426002 0.0358307 0.0409682 0.0397625 0.045608 0.0409682 0.0457559 0.045608 0.0510484 0.0397625 0.045608 0.0426002 0.0493721 0.045608 0.0510484 0.0493721 0.0557677 0.00746339 0.00731765 0.0127167 0.0127046 0.00731765 0.00694574 0.0127046 0.0122976 0.0127167 0.0127046 0.0195297 0.0199479 0.0127046 0.0122976 0.0199479 0.0197637 0.00694574 0.00639159 0.0122976 0.0115463 0.00639159 0.00570719 0.0115463 0.0105217 0.0122976 0.0115463 0.0197637 0.0190079 0.0115463 0.0105217 0.0190079 0.0177493 0.0195297 0.0199479 0.0270697 0.0283231 0.0199479 0.0197637 0.0283231 0.0287975 0.0270697 0.0283231 0.0342125 0.0366202 0.0283231 0.0287975 0.0366202 0.0382037 0.0197637 0.0190079 0.0287975 0.0284598 0.0190079 0.0177493 0.0284598 0.0273304 0.0287975 0.0284598 0.0382037 0.0388346 0.0284598 0.0273304 0.0388346 0.0384289 0.00570719 0.00494742 0.0105217 0.00930781 0.00494742 0.00416477 0.00930781 0.0079937 0.0105217 0.00930781 0.0177493 0.0160902 0.00930781 0.0079937 0.0160902 0.0141567 0.00416477 0.00340492 0.0079937 0.00666419 0.00340492 0.00270355 0.00666419 0.0053924 0.0079937 0.00666419 0.0141567 0.0120846 0.00666419 0.0053924 0.0120846 0.0100049 0.0177493 0.0160902 0.0273304 0.0254886 0.0160902 0.0141567 0.0254886 0.0230689 0.0273304 0.0254886 0.0384289 0.0369729 0.0254886 0.0230689 0.0369729 0.0345392 0.0141567 0.0120846 0.0230689 0.0202478 0.0120846 0.0100049 0.0202478 0.0172231 0.0230689 0.0202478 0.0345392 0.0312887 0.0202478 0.0172231 0.0312887 0.0274541 0.0342125 0.0366202 0.040333 0.0438887 0.0366202 0.0382037 0.0438887 0.0467525 0.040333 0.0438887 0.0457559 0.0501424 0.0438887 0.0467525 0.0501424 0.0540341 0.0382037 0.0388346 0.0467525 0.048729 0.0388346 0.0384289 0.048729 0.0496183 0.0467525 0.048729 0.0540341 0.057272 0.048729 0.0496183 0.057272 0.0596264 0.0457559 0.0501424 0.0510484 0.0560553 0.0501424 0.0540341 0.0560553 0.0606142 0.0510484 0.0560553 0.0557677 0.0616584 0.0560553 0.0606142 0.0616584 0.0669713 0.0540341 0.057272 0.0606142 0.0646858 0.057272 0.0596264 0.0646858 0.0681546 0.0606142 0.0646858 0.0669713 0.0716994 0.0646858 0.0681546 0.0716994 0.0758634 0.0384289 0.0369729 0.0496183 0.0492578 0.0369729 0.0345392 0.0492578 0.0475676 0.0496183 0.0492578 0.0596264 0.0608226 0.0492578 0.0475676 0.0608226 0.0605962 0.0345392 0.0312887 0.0475676 0.0445867 0.0312887 0.0274541 0.0445867 0.0404867 0.0475676 0.0445867 0.0605962 0.0587661 0.0445867 0.0404867 0.0587661 0.0553022 0.0596264 0.0608226 0.0681546 0.0707931 0.0608226 0.0605962 0.0707931 0.0722688 0.0681546 0.0707931 0.0758634 0.0794292 0.0707931 0.0722688 0.0794292 0.0822217 0.0605962 0.0587661 0.0722688 0.0722067 0.0587661 0.0553022 0.0722067 0.0702943 0.0722688 0.0722067 0.0822217 0.0838896 0.0722067 0.0702943 0.0838896 0.0839576 0 0 3.26161e-06 2.39865e-06 0 0 2.39865e-06 1.71766e-06 3.26161e-06 2.39865e-06 1.09035e-05 8.02461e-06 2.39865e-06 1.71766e-06 8.02461e-06 5.74974e-06 0 0 1.71766e-06 1.19797e-06 0 0 1.19797e-06 8.13938e-07 1.71766e-06 1.19797e-06 5.74974e-06 4.01171e-06 1.19797e-06 8.13938e-07 4.01171e-06 2.72608e-06 1.09035e-05 8.02461e-06 3.19008e-05 2.35272e-05 8.02461e-06 5.74974e-06 2.35272e-05 1.68891e-05 3.19008e-05 2.35272e-05 8.76542e-05 6.48995e-05 2.35272e-05 1.68891e-05 6.48995e-05 4.67578e-05 5.74974e-06 4.01171e-06 1.68891e-05 1.18029e-05 4.01171e-06 2.72608e-06 1.18029e-05 8.03095e-06 1.68891e-05 1.18029e-05 4.67578e-05 3.27846e-05 1.18029e-05 8.03095e-06 3.27846e-05 2.23732e-05 0 0 8.13938e-07 5.38857e-07 0 0 5.38857e-07 3.47697e-07 8.13938e-07 5.38857e-07 2.72608e-06 1.8044e-06 5.38857e-07 3.47697e-07 1.8044e-06 1.16349e-06 0 0 3.47697e-07 2.18715e-07 0 0 2.18715e-07 1.34138e-07 3.47697e-07 2.18715e-07 1.16349e-06 7.30927e-07 2.18715e-07 1.34138e-07 7.30927e-07 4.474e-07 2.72608e-06 1.8044e-06 8.03095e-06 5.32075e-06 1.8044e-06 1.16349e-06 5.32075e-06 3.43259e-06 8.03095e-06 5.32075e-06 2.23732e-05 1.48607e-05 5.32075e-06 3.43259e-06 1.48607e-05 9.60747e-06 1.16349e-06 7.30927e-07 3.43259e-06 2.15635e-06 7.30927e-07 4.474e-07 2.15635e-06 1.31906e-06 3.43259e-06 2.15635e-06 9.60747e-06 6.04531e-06 2.15635e-06 1.31906e-06 6.04531e-06 3.70207e-06 8.76542e-05 6.48995e-05 0.000227037 0.000169124 6.48995e-05 4.67578e-05 0.000169124 0.000122547 0.000227037 0.000169124 0.000553171 0.000415611 0.000169124 0.000122547 0.000415611 0.00030361 4.67578e-05 3.27846e-05 0.000122547 8.63838e-05 3.27846e-05 2.23732e-05 8.63838e-05 5.92392e-05 0.000122547 8.63838e-05 0.00030361 0.000215654 8.63838e-05 5.92392e-05 0.000215654 0.00014894 0.000553171 0.000415611 0.00126439 0.00096086 0.000415611 0.00030361 0.00096086 0.000709574 0.00126439 0.00096086 0.00270355 0.00208473 0.00096086 0.000709574 0.00208473 0.00156106 0.00030361 0.000215654 0.000709574 0.00050919 0.000215654 0.00014894 0.00050919 0.000355042 0.000709574 0.00050919 0.00156106 0.001135 0.00050919 0.000355042 0.001135 0.000801179 2.23732e-05 1.48607e-05 5.92392e-05 3.95217e-05 1.48607e-05 9.60747e-06 3.95217e-05 2.56507e-05 5.92392e-05 3.95217e-05 0.00014894 0.000100014 3.95217e-05 2.56507e-05 0.000100014 6.52949e-05 9.60747e-06 6.04531e-06 2.56507e-05 1.61948e-05 6.04531e-06 3.70207e-06 1.61948e-05 9.94554e-06 2.56507e-05 1.61948e-05 6.52949e-05 4.14414e-05 1.61948e-05 9.94554e-06 4.14414e-05 2.55674e-05 0.00014894 0.000100014 0.000355042 0.000240527 0.000100014 6.52949e-05 0.000240527 0.000158304 0.000355042 0.000240527 0.000801179 0.000548994 0.000240527 0.000158304 0.000548994 0.000365138 6.52949e-05 4.14414e-05 0.000158304 0.00010121 4.14414e-05 2.55674e-05 0.00010121 6.28505e-05 0.000158304 0.00010121 0.000365138 0.000235693 0.00010121 6.28505e-05 0.000235693 0.000147632 0 0 1.34138e-07 8.01809e-08 0 0 8.01809e-08 4.66465e-08 1.34138e-07 8.01809e-08 4.474e-07 2.66792e-07 8.01809e-08 4.66465e-08 2.66792e-07 1.54891e-07 0 0 4.66465e-08 2.63143e-08 0 0 2.63143e-08 1.4277e-08 4.66465e-08 2.63143e-08 1.54891e-07 8.7394e-08 2.63143e-08 1.4277e-08 8.7394e-08 4.77201e-08 4.474e-07 2.66792e-07 1.31906e-06 7.85646e-07 2.66792e-07 1.54891e-07 7.85646e-07 4.55526e-07 1.31906e-06 7.85646e-07 3.70207e-06 2.20623e-06 7.85646e-07 4.55526e-07 2.20623e-06 1.27935e-06 1.54891e-07 8.7394e-08 4.55526e-07 2.56945e-07 8.7394e-08 4.77201e-08 2.56945e-07 1.40764e-07 4.55526e-07 2.56945e-07 1.27935e-06 7.21699e-07 2.56945e-07 1.40764e-07 7.21699e-07 3.95831e-07 0 0 1.4277e-08 7.32232e-09 0 0 7.32232e-09 3.41644e-09 1.4277e-08 7.32232e-09 4.77201e-08 2.49876e-08 7.32232e-09 3.41644e-09 2.49876e-08 1.23062e-08 0 0 3.41644e-09 1.30614e-09 0 0 1.30614e-09 2.34258e-10 3.41644e-09 1.30614e-09 1.23062e-08 5.4521e-09 1.30614e-09 2.34258e-10 5.4521e-09 1.90627e-09 4.77201e-08 2.49876e-08 1.40764e-07 7.46121e-08 2.49876e-08 1.23062e-08 7.46121e-08 3.79473e-08 1.40764e-07 7.46121e-08 3.95831e-07 2.10794e-07 7.46121e-08 3.79473e-08 2.10794e-07 1.08645e-07 1.23062e-08 5.4521e-09 3.79473e-08 1.81893e-08 5.4521e-09 1.90627e-09 1.81893e-08 7.88386e-09 3.79473e-08 1.81893e-08 1.08645e-07 5.38082e-08 1.81893e-08 7.88386e-09 5.38082e-08 2.52071e-08 3.70207e-06 2.20623e-06 9.94554e-06 5.94039e-06 2.20623e-06 1.27935e-06 5.94039e-06 3.45051e-06 9.94554e-06 5.94039e-06 2.55674e-05 1.53315e-05 5.94039e-06 3.45051e-06 1.53315e-05 8.93461e-06 1.27935e-06 7.21699e-07 3.45051e-06 1.94881e-06 7.21699e-07 3.95831e-07 1.94881e-06 1.06999e-06 3.45051e-06 1.94881e-06 8.93461e-06 5.0594e-06 1.94881e-06 1.06999e-06 5.0594e-06 2.78347e-06 2.55674e-05 1.53315e-05 6.28505e-05 3.79052e-05 1.53315e-05 8.93461e-06 3.79052e-05 2.21993e-05 6.28505e-05 3.79052e-05 0.000147632 8.97247e-05 3.79052e-05 2.21993e-05 8.97247e-05 5.29038e-05 8.93461e-06 5.0594e-06 2.21993e-05 1.26233e-05 5.0594e-06 2.78347e-06 1.26233e-05 6.9684e-06 2.21993e-05 1.26233e-05 5.29038e-05 3.02587e-05 1.26233e-05 6.9684e-06 3.02587e-05 1.6786e-05 3.95831e-07 2.10794e-07 1.06999e-06 5.70834e-07 2.10794e-07 1.08645e-07 5.70834e-07 2.95579e-07 1.06999e-06 5.70834e-07 2.78347e-06 1.48747e-06 5.70834e-07 2.95579e-07 1.48747e-06 7.71809e-07 1.08645e-07 5.38082e-08 2.95579e-07 1.48148e-07 5.38082e-08 2.52071e-08 1.48148e-07 7.14252e-08 2.95579e-07 1.48148e-07 7.71809e-07 3.88472e-07 1.48148e-07 7.14252e-08 3.88472e-07 1.89219e-07 2.78347e-06 1.48747e-06 6.9684e-06 3.73383e-06 1.48747e-06 7.71809e-07 3.73383e-06 1.94157e-06 6.9684e-06 3.73383e-06 1.6786e-05 9.03063e-06 3.73383e-06 1.94157e-06 9.03063e-06 4.71084e-06 7.71809e-07 3.88472e-07 1.94157e-06 9.79432e-07 3.88472e-07 1.89219e-07 9.79432e-07 4.78911e-07 1.94157e-06 9.79432e-07 4.71084e-06 2.38239e-06 9.79432e-07 4.78911e-07 2.38239e-06 1.16768e-06 0.00270355 0.00208473 0.0053924 0.00423421 0.00208473 0.00156106 0.00423421 0.0032258 0.0053924 0.00423421 0.0100049 0.00803066 0.00423421 0.0032258 0.00803066 0.00624755 0.00156106 0.001135 0.0032258 0.00238394 0.001135 0.000801179 0.00238394 0.00170871 0.0032258 0.00238394 0.00624755 0.00470938 0.00238394 0.00170871 0.00470938 0.00343878 0.0100049 0.00803066 0.0172231 0.0141895 0.00803066 0.00624755 0.0141895 0.0113168 0.0172231 0.0141895 0.0274541 0.0233102 0.0141895 0.0113168 0.0233102 0.0191361 0.00624755 0.00470938 0.0113168 0.00873373 0.00470938 0.00343878 0.00873373 0.00651997 0.0113168 0.00873373 0.0191361 0.0151792 0.00873373 0.00651997 0.0151792 0.0116285 0.000801179 0.000548994 0.00170871 0.00118765 0.000548994 0.000365138 0.00118765 0.000800364 0.00170871 0.00118765 0.00343878 0.00243188 0.00118765 0.000800364 0.00243188 0.00166532 0.000365138 0.000235693 0.000800364 0.000522884 0.000235693 0.000147632 0.000522884 0.000331121 0.000800364 0.000522884 0.00166532 0.00110409 0.000522884 0.000331121 0.00110409 0.000708608 0.00343878 0.00243188 0.00651997 0.00470698 0.00243188 0.00166532 0.00470698 0.00328549 0.00651997 0.00470698 0.0116285 0.0086004 0.00470698 0.00328549 0.0086004 0.00613926 0.00166532 0.00110409 0.00328549 0.0022169 0.00110409 0.000708608 0.0022169 0.00144586 0.00328549 0.0022169 0.00613926 0.00422899 0.0022169 0.00144586 0.00422899 0.0028108 0.0274541 0.0233102 0.0404867 0.0355566 0.0233102 0.0191361 0.0355566 0.0301616 0.0404867 0.0355566 0.0553022 0.0503623 0.0355566 0.0301616 0.0503623 0.0442846 0.0191361 0.0151792 0.0301616 0.0246871 0.0151792 0.0116285 0.0246871 0.0194824 0.0301616 0.0246871 0.0442846 0.0375353 0.0246871 0.0194824 0.0375353 0.0306282 0.0553022 0.0503623 0.0702943 0.0663944 0.0503623 0.0442846 0.0663944 0.0606213 0.0702943 0.0663944 0.0839576 0.0819636 0.0663944 0.0606213 0.0819636 0.0776303 0.0442846 0.0375353 0.0606213 0.0533507 0.0375353 0.0306282 0.0533507 0.0451582 0.0606213 0.0533507 0.0776303 0.0709993 0.0533507 0.0451582 0.0709993 0.062473 0.0116285 0.0086004 0.0194824 0.014816 0.0086004 0.00613926 0.014816 0.0108538 0.0194824 0.014816 0.0306282 0.0240391 0.014816 0.0108538 0.0240391 0.0181376 0.00613926 0.00422899 0.0108538 0.00765764 0.00422899 0.0028108 0.00765764 0.0052025 0.0108538 0.00765764 0.0181376 0.013151 0.00765764 0.0052025 0.013151 0.00916177 0.0306282 0.0240391 0.0451582 0.0367077 0.0240391 0.0181376 0.0367077 0.0286266 0.0451582 0.0367077 0.062473 0.052746 0.0367077 0.0286266 0.052746 0.0426545 0.0181376 0.013151 0.0286266 0.021405 0.013151 0.00916177 0.021405 0.0153413 0.0286266 0.021405 0.0426545 0.0330018 0.021405 0.0153413 0.0330018 0.0244145 0.000147632 8.97247e-05 0.000331121 0.000203226 8.97247e-05 5.29038e-05 0.000203226 0.000120875 0.000331121 0.000203226 0.000708608 0.000440206 0.000203226 0.000120875 0.000440206 0.000264675 5.29038e-05 3.02587e-05 0.000120875 6.96647e-05 3.02587e-05 1.6786e-05 6.96647e-05 3.89009e-05 0.000120875 6.96647e-05 0.000264675 0.000154006 6.96647e-05 3.89009e-05 0.000154006 8.67162e-05 0.000708608 0.000440206 0.00144586 0.000911376 0.000440206 0.000264675 0.000911376 0.000555178 0.00144586 0.000911376 0.0028108 0.00180244 0.000911376 0.000555178 0.00180244 0.00111511 0.000264675 0.000154006 0.000555178 0.000326818 0.000154006 8.67162e-05 0.000326818 0.000185909 0.000555178 0.000326818 0.00111511 0.000665568 0.000326818 0.000185909 0.000665568 0.000383256 1.6786e-05 9.03063e-06 3.89009e-05 2.1044e-05 9.03063e-06 4.71084e-06 2.1044e-05 1.10273e-05 3.89009e-05 2.1044e-05 8.67162e-05 4.7246e-05 2.1044e-05 1.10273e-05 4.7246e-05 2.49057e-05 4.71084e-06 2.38239e-06