<?xml version="1.0" ?> 
<!-- 
# vtk DataFile Version 3.0
#This file was generated by the deal.II library on 21:43:12 at 2021/4/29
-->
<VTKFile type="UnstructuredGrid" version="0.1" byte_order="LittleEndian">
<UnstructuredGrid>
<Piece NumberOfPoints="65536" NumberOfCells="16384" >
  <Points>
    <DataArray type="Float32" NumberOfComponents="3" format="ascii">
-1 -1 0
-0.984375 -1 0
-1 -0.984375 0
-0.984375 -0.984375 0
-0.984375 -1 0
-0.96875 -1 0
-0.984375 -0.984375 0
-0.96875 -0.984375 0
-1 -0.984375 0
-0.984375 -0.984375 0
-1 -0.96875 0
-0.984375 -0.96875 0
-0.984375 -0.984375 0
-0.96875 -0.984375 0
-0.984375 -0.96875 0
-0.96875 -0.96875 0
-0.96875 -1 0
-0.953125 -1 0
-0.96875 -0.984375 0
-0.953125 -0.984375 0
-0.953125 -1 0
-0.9375 -1 0
-0.953125 -0.984375 0
-0.9375 -0.984375 0
-0.96875 -0.984375 0
-0.953125 -0.984375 0
-0.96875 -0.96875 0
-0.953125 -0.96875 0
-0.953125 -0.984375 0
-0.9375 -0.984375 0
-0.953125 -0.96875 0
-0.9375 -0.96875 0
-1 -0.96875 0
-0.984375 -0.96875 0
-1 -0.953125 0
-0.984375 -0.953125 0
-0.984375 -0.96875 0
-0.96875 -0.96875 0
-0.984375 -0.953125 0
-0.96875 -0.953125 0
-1 -0.953125 0
-0.984375 -0.953125 0
-1 -0.9375 0
-0.984375 -0.9375 0
-0.984375 -0.953125 0
-0.96875 -0.953125 0
-0.984375 -0.9375 0
-0.96875 -0.9375 0
-0.96875 -0.96875 0
-0.953125 -0.96875 0
-0.96875 -0.953125 0
-0.953125 -0.953125 0
-0.953125 -0.96875 0
-0.9375 -0.96875 0
-0.953125 -0.953125 0
-0.9375 -0.953125 0
-0.96875 -0.953125 0
-0.953125 -0.953125 0
-0.96875 -0.9375 0
-0.953125 -0.9375 0
-0.953125 -0.953125 0
-0.9375 -0.953125 0
-0.953125 -0.9375 0
-0.9375 -0.9375 0
-0.9375 -1 0
-0.921875 -1 0
-0.9375 -0.984375 0
-0.921875 -0.984375 0
-0.921875 -1 0
-0.90625 -1 0
-0.921875 -0.984375 0
-0.90625 -0.984375 0
-0.9375 -0.984375 0
-0.921875 -0.984375 0
-0.9375 -0.96875 0
-0.921875 -0.96875 0
-0.921875 -0.984375 0
-0.90625 -0.984375 0
-0.921875 -0.96875 0
-0.90625 -0.96875 0
-0.90625 -1 0
-0.890625 -1 0
-0.90625 -0.984375 0
-0.890625 -0.984375 0
-0.890625 -1 0
-0.875 -1 0
-0.890625 -0.984375 0
-0.875 -0.984375 0
-0.90625 -0.984375 0
-0.890625 -0.984375 0
-0.90625 -0.96875 0
-0.890625 -0.96875 0
-0.890625 -0.984375 0
-0.875 -0.984375 0
-0.890625 -0.96875 0
-0.875 -0.96875 0
-0.9375 -0.96875 0
-0.921875 -0.96875 0
-0.9375 -0.953125 0
-0.921875 -0.953125 0
-0.921875 -0.96875 0
-0.90625 -0.96875 0
-0.921875 -0.953125 0
-0.90625 -0.953125 0
-0.9375 -0.953125 0
-0.921875 -0.953125 0
-0.9375 -0.9375 0
-0.921875 -0.9375 0
-0.921875 -0.953125 0
-0.90625 -0.953125 0
-0.921875 -0.9375 0
-0.90625 -0.9375 0
-0.90625 -0.96875 0
-0.890625 -0.96875 0
-0.90625 -0.953125 0
-0.890625 -0.953125 0
-0.890625 -0.96875 0
-0.875 -0.96875 0
-0.890625 -0.953125 0
-0.875 -0.953125 0
-0.90625 -0.953125 0
-0.890625 -0.953125 0
-0.90625 -0.9375 0
-0.890625 -0.9375 0
-0.890625 -0.953125 0
-0.875 -0.953125 0
-0.890625 -0.9375 0
-0.875 -0.9375 0
-1 -0.9375 0
-0.984375 -0.9375 0
-1 -0.921875 0
-0.984375 -0.921875 0
-0.984375 -0.9375 0
-0.96875 -0.9375 0
-0.984375 -0.921875 0
-0.96875 -0.921875 0
-1 -0.921875 0
-0.984375 -0.921875 0
-1 -0.90625 0
-0.984375 -0.90625 0
-0.984375 -0.921875 0
-0.96875 -0.921875 0
-0.984375 -0.90625 0
-0.96875 -0.90625 0
-0.96875 -0.9375 0
-0.953125 -0.9375 0
-0.96875 -0.921875 0
-0.953125 -0.921875 0
-0.953125 -0.9375 0
-0.9375 -0.9375 0
-0.953125 -0.921875 0
-0.9375 -0.921875 0
-0.96875 -0.921875 0
-0.953125 -0.921875 0
-0.96875 -0.90625 0
-0.953125 -0.90625 0
-0.953125 -0.921875 0
-0.9375 -0.921875 0
-0.953125 -0.90625 0
-0.9375 -0.90625 0
-1 -0.90625 0
-0.984375 -0.90625 0
-1 -0.890625 0
-0.984375 -0.890625 0
-0.984375 -0.90625 0
-0.96875 -0.90625 0
-0.984375 -0.890625 0
-0.96875 -0.890625 0
-1 -0.890625 0
-0.984375 -0.890625 0
-1 -0.875 0
-0.984375 -0.875 0
-0.984375 -0.890625 0
-0.96875 -0.890625 0
-0.984375 -0.875 0
-0.96875 -0.875 0
-0.96875 -0.90625 0
-0.953125 -0.90625 0
-0.96875 -0.890625 0
-0.953125 -0.890625 0
-0.953125 -0.90625 0
-0.9375 -0.90625 0
-0.953125 -0.890625 0
-0.9375 -0.890625 0
-0.96875 -0.890625 0
-0.953125 -0.890625 0
-0.96875 -0.875 0
-0.953125 -0.875 0
-0.953125 -0.890625 0
-0.9375 -0.890625 0
-0.953125 -0.875 0
-0.9375 -0.875 0
-0.9375 -0.9375 0
-0.921875 -0.9375 0
-0.9375 -0.921875 0
-0.921875 -0.921875 0
-0.921875 -0.9375 0
-0.90625 -0.9375 0
-0.921875 -0.921875 0
-0.90625 -0.921875 0
-0.9375 -0.921875 0
-0.921875 -0.921875 0
-0.9375 -0.90625 0
-0.921875 -0.90625 0
-0.921875 -0.921875 0
-0.90625 -0.921875 0
-0.921875 -0.90625 0
-0.90625 -0.90625 0
-0.90625 -0.9375 0
-0.890625 -0.9375 0
-0.90625 -0.921875 0
-0.890625 -0.921875 0
-0.890625 -0.9375 0
-0.875 -0.9375 0
-0.890625 -0.921875 0
-0.875 -0.921875 0
-0.90625 -0.921875 0
-0.890625 -0.921875 0
-0.90625 -0.90625 0
-0.890625 -0.90625 0
-0.890625 -0.921875 0
-0.875 -0.921875 0
-0.890625 -0.90625 0
-0.875 -0.90625 0
-0.9375 -0.90625 0
-0.921875 -0.90625 0
-0.9375 -0.890625 0
-0.921875 -0.890625 0
-0.921875 -0.90625 0
-0.90625 -0.90625 0
-0.921875 -0.890625 0
-0.90625 -0.890625 0
-0.9375 -0.890625 0
-0.921875 -0.890625 0
-0.9375 -0.875 0
-0.921875 -0.875 0
-0.921875 -0.890625 0
-0.90625 -0.890625 0
-0.921875 -0.875 0
-0.90625 -0.875 0
-0.90625 -0.90625 0
-0.890625 -0.90625 0
-0.90625 -0.890625 0
-0.890625 -0.890625 0
-0.890625 -0.90625 0
-0.875 -0.90625 0
-0.890625 -0.890625 0
-0.875 -0.890625 0
-0.90625 -0.890625 0
-0.890625 -0.890625 0
-0.90625 -0.875 0
-0.890625 -0.875 0
-0.890625 -0.890625 0
-0.875 -0.890625 0
-0.890625 -0.875 0
-0.875 -0.875 0
-0.875 -1 0
-0.859375 -1 0
-0.875 -0.984375 0
-0.859375 -0.984375 0
-0.859375 -1 0
-0.84375 -1 0
-0.859375 -0.984375 0
-0.84375 -0.984375 0
-0.875 -0.984375 0
-0.859375 -0.984375 0
-0.875 -0.96875 0
-0.859375 -0.96875 0
-0.859375 -0.984375 0
-0.84375 -0.984375 0
-0.859375 -0.96875 0
-0.84375 -0.96875 0
-0.84375 -1 0
-0.828125 -1 0
-0.84375 -0.984375 0
-0.828125 -0.984375 0
-0.828125 -1 0
-0.8125 -1 0
-0.828125 -0.984375 0
-0.8125 -0.984375 0
-0.84375 -0.984375 0
-0.828125 -0.984375 0
-0.84375 -0.96875 0
-0.828125 -0.96875 0
-0.828125 -0.984375 0
-0.8125 -0.984375 0
-0.828125 -0.96875 0
-0.8125 -0.96875 0
-0.875 -0.96875 0
-0.859375 -0.96875 0
-0.875 -0.953125 0
-0.859375 -0.953125 0
-0.859375 -0.96875 0
-0.84375 -0.96875 0
-0.859375 -0.953125 0
-0.84375 -0.953125 0
-0.875 -0.953125 0
-0.859375 -0.953125 0
-0.875 -0.9375 0
-0.859375 -0.9375 0
-0.859375 -0.953125 0
-0.84375 -0.953125 0
-0.859375 -0.9375 0
-0.84375 -0.9375 0
-0.84375 -0.96875 0
-0.828125 -0.96875 0
-0.84375 -0.953125 0
-0.828125 -0.953125 0
-0.828125 -0.96875 0
-0.8125 -0.96875 0
-0.828125 -0.953125 0
-0.8125 -0.953125 0
-0.84375 -0.953125 0
-0.828125 -0.953125 0
-0.84375 -0.9375 0
-0.828125 -0.9375 0
-0.828125 -0.953125 0
-0.8125 -0.953125 0
-0.828125 -0.9375 0
-0.8125 -0.9375 0
-0.8125 -1 0
-0.796875 -1 0
-0.8125 -0.984375 0
-0.796875 -0.984375 0
-0.796875 -1 0
-0.78125 -1 0
-0.796875 -0.984375 0
-0.78125 -0.984375 0
-0.8125 -0.984375 0
-0.796875 -0.984375 0
-0.8125 -0.96875 0
-0.796875 -0.96875 0
-0.796875 -0.984375 0
-0.78125 -0.984375 0
-0.796875 -0.96875 0
-0.78125 -0.96875 0
-0.78125 -1 0
-0.765625 -1 0
-0.78125 -0.984375 0
-0.765625 -0.984375 0
-0.765625 -1 0
-0.75 -1 0
-0.765625 -0.984375 0
-0.75 -0.984375 0
-0.78125 -0.984375 0
-0.765625 -0.984375 0
-0.78125 -0.96875 0
-0.765625 -0.96875 0
-0.765625 -0.984375 0
-0.75 -0.984375 0
-0.765625 -0.96875 0
-0.75 -0.96875 0
-0.8125 -0.96875 0
-0.796875 -0.96875 0
-0.8125 -0.953125 0
-0.796875 -0.953125 0
-0.796875 -0.96875 0
-0.78125 -0.96875 0
-0.796875 -0.953125 0
-0.78125 -0.953125 0
-0.8125 -0.953125 0
-0.796875 -0.953125 0
-0.8125 -0.9375 0
-0.796875 -0.9375 0
-0.796875 -0.953125 0
-0.78125 -0.953125 0
-0.796875 -0.9375 0
-0.78125 -0.9375 0
-0.78125 -0.96875 0
-0.765625 -0.96875 0
-0.78125 -0.953125 0
-0.765625 -0.953125 0
-0.765625 -0.96875 0
-0.75 -0.96875 0
-0.765625 -0.953125 0
-0.75 -0.953125 0
-0.78125 -0.953125 0
-0.765625 -0.953125 0
-0.78125 -0.9375 0
-0.765625 -0.9375 0
-0.765625 -0.953125 0
-0.75 -0.953125 0
-0.765625 -0.9375 0
-0.75 -0.9375 0
-0.875 -0.9375 0
-0.859375 -0.9375 0
-0.875 -0.921875 0
-0.859375 -0.921875 0
-0.859375 -0.9375 0
-0.84375 -0.9375 0
-0.859375 -0.921875 0
-0.84375 -0.921875 0
-0.875 -0.921875 0
-0.859375 -0.921875 0
-0.875 -0.90625 0
-0.859375 -0.90625 0
-0.859375 -0.921875 0
-0.84375 -0.921875 0
-0.859375 -0.90625 0
-0.84375 -0.90625 0
-0.84375 -0.9375 0
-0.828125 -0.9375 0
-0.84375 -0.921875 0
-0.828125 -0.921875 0
-0.828125 -0.9375 0
-0.8125 -0.9375 0
-0.828125 -0.921875 0
-0.8125 -0.921875 0
-0.84375 -0.921875 0
-0.828125 -0.921875 0
-0.84375 -0.90625 0
-0.828125 -0.90625 0
-0.828125 -0.921875 0
-0.8125 -0.921875 0
-0.828125 -0.90625 0
-0.8125 -0.90625 0
-0.875 -0.90625 0
-0.859375 -0.90625 0
-0.875 -0.890625 0
-0.859375 -0.890625 0
-0.859375 -0.90625 0
-0.84375 -0.90625 0
-0.859375 -0.890625 0
-0.84375 -0.890625 0
-0.875 -0.890625 0
-0.859375 -0.890625 0
-0.875 -0.875 0
-0.859375 -0.875 0
-0.859375 -0.890625 0
-0.84375 -0.890625 0
-0.859375 -0.875 0
-0.84375 -0.875 0
-0.84375 -0.90625 0
-0.828125 -0.90625 0
-0.84375 -0.890625 0
-0.828125 -0.890625 0
-0.828125 -0.90625 0
-0.8125 -0.90625 0
-0.828125 -0.890625 0
-0.8125 -0.890625 0
-0.84375 -0.890625 0
-0.828125 -0.890625 0
-0.84375 -0.875 0
-0.828125 -0.875 0
-0.828125 -0.890625 0
-0.8125 -0.890625 0
-0.828125 -0.875 0
-0.8125 -0.875 0
-0.8125 -0.9375 0
-0.796875 -0.9375 0
-0.8125 -0.921875 0
-0.796875 -0.921875 0
-0.796875 -0.9375 0
-0.78125 -0.9375 0
-0.796875 -0.921875 0
-0.78125 -0.921875 0
-0.8125 -0.921875 0
-0.796875 -0.921875 0
-0.8125 -0.90625 0
-0.796875 -0.90625 0
-0.796875 -0.921875 0
-0.78125 -0.921875 0
-0.796875 -0.90625 0
-0.78125 -0.90625 0
-0.78125 -0.9375 0
-0.765625 -0.9375 0
-0.78125 -0.921875 0
-0.765625 -0.921875 0
-0.765625 -0.9375 0
-0.75 -0.9375 0
-0.765625 -0.921875 0
-0.75 -0.921875 0
-0.78125 -0.921875 0
-0.765625 -0.921875 0
-0.78125 -0.90625 0
-0.765625 -0.90625 0
-0.765625 -0.921875 0
-0.75 -0.921875 0
-0.765625 -0.90625 0
-0.75 -0.90625 0
-0.8125 -0.90625 0
-0.796875 -0.90625 0
-0.8125 -0.890625 0
-0.796875 -0.890625 0
-0.796875 -0.90625 0
[...]
  <PointData Scalars="scalars">
    <DataArray type="Float32" Name="U" format="ascii">
0 0 0 -1.73786e-07 0 0 -1.73786e-07 3.24933e-06 0 -1.73786e-07 0 -1.46695e-05 -1.73786e-07 3.24933e-06 -1.46695e-05 -2.52479e-05 0 0 3.24933e-06 1.24973e-05 0 0 1.24973e-05 2.71118e-05 3.24933e-06 1.24973e-05 -2.52479e-05 -2.58489e-05 1.24973e-05 2.71118e-05 -2.58489e-05 -7.00263e-06 0 -1.46695e-05 0 2.75375e-05 -1.46695e-05 -2.52479e-05 2.75375e-05 6.48961e-05 0 2.75375e-05 0 4.27438e-05 2.75375e-05 6.48961e-05 4.27438e-05 9.43969e-05 -2.52479e-05 -2.58489e-05 6.48961e-05 0.000121161 -2.58489e-05 -7.00263e-06 0.000121161 0.000203839 6.48961e-05 0.000121161 9.43969e-05 0.00016289 0.000121161 0.000203839 0.00016289 0.000254354 0 0 2.71118e-05 4.33411e-05 0 0 4.33411e-05 5.58023e-05 2.71118e-05 4.33411e-05 -7.00263e-06 4.53978e-05 4.33411e-05 5.58023e-05 4.53978e-05 0.00014863 0 0 5.58023e-05 6.32252e-05 0 0 6.32252e-05 7.80754e-05 5.58023e-05 6.32252e-05 0.00014863 0.00031703 6.32252e-05 7.80754e-05 0.00031703 0.000551242 -7.00263e-06 4.53978e-05 0.000203839 0.000318043 4.53978e-05 0.00014863 0.000318043 0.000466175 0.000203839 0.000318043 0.000254354 0.000373048 0.000318043 0.000466175 0.000373048 0.000523256 0.00014863 0.00031703 0.000466175 0.000648775 0.00031703 0.000551242 0.000648775 0.000867015 0.000466175 0.000648775 0.000523256 0.000714329 0.000648775 0.000867015 0.000714329 0.000967885 0 4.27438e-05 0 4.39792e-05 4.27438e-05 9.43969e-05 4.39792e-05 9.70065e-05 0 4.39792e-05 0 0.000152461 4.39792e-05 9.70065e-05 0.000152461 0.000316509 9.43969e-05 0.00016289 9.70065e-05 0.000170086 0.00016289 0.000254354 0.000170086 0.000277971 9.70065e-05 0.000170086 0.000316509 0.000502808 0.000170086 0.000277971 0.000502808 0.000720351 0 0.000152461 0 0.000281963 0.000152461 0.000316509 0.000281963 0.000573275 0 0.000281963 0 0.000416527 0.000281963 0.000573275 0.000416527 0.00083963 0.000316509 0.000502808 0.000573275 0.000882768 0.000502808 0.000720351 0.000882768 0.00121801 0.000573275 0.000882768 0.00083963 0.00127766 0.000882768 0.00121801 0.00127766 0.00174265 0.000254354 0.000373048 0.000277971 0.00043992 0.000373048 0.000523256 0.00043992 0.000677599 0.000277971 0.00043992 0.000720351 0.000976401 0.00043992 0.000677599 0.000976401 0.00127783 0.000523256 0.000714329 0.000677599 0.00100858 0.000714329 0.000967885 0.00100858 0.00143699 0.000677599 0.00100858 0.00127783 0.00163375 0.00100858 0.00143699 0.00163375 0.00205732 0.000720351 0.000976401 0.00121801 0.00158448 0.000976401 0.00127783 0.00158448 0.00198583 0.00121801 0.00158448 0.00174265 0.0022517 0.00158448 0.00198583 0.0022517 0.00282519 0.00127783 0.00163375 0.00198583 0.00242762 0.00163375 0.00205732 0.00242762 0.00292608 0.00198583 0.00242762 0.00282519 0.00347923 0.00242762 0.00292608 0.00347923 0.00421298 0 0 7.80754e-05 0.000134541 0 0 0.000134541 0.000283214 7.80754e-05 0.000134541 0.000551242 0.000828473 0.000134541 0.000283214 0.000828473 0.0011059 0 0 0.000283214 0.00056194 0 0 0.00056194 0.000950289 0.000283214 0.00056194 0.0011059 0.00134852 0.00056194 0.000950289 0.00134852 0.00157523 0.000551242 0.000828473 0.000867015 0.00112657 0.000828473 0.0011059 0.00112657 0.00144154 0.000867015 0.00112657 0.000967885 0.00132142 0.00112657 0.00144154 0.00132142 0.00181856 0.0011059 0.00134852 0.00144154 0.00183548 0.00134852 0.00157523 0.00183548 0.00233597 0.00144154 0.00183548 0.00181856 0.00248132 0.00183548 0.00233597 0.00248132 0.00327899 0 0 0.000950289 0.00134641 0 0 0.00134641 0.00161868 0.000950289 0.00134641 0.00157523 0.00188548 0.00134641 0.00161868 0.00188548 0.00241384 0 0 0.00161868 0.00173503 0 0 0.00173503 0.00186205 0.00161868 0.00173503 0.00241384 0.00320573 0.00173503 0.00186205 0.00320573 0.00411635 0.00157523 0.00188548 0.00233597 0.00296149 0.00188548 0.00241384 0.00296149 0.00370849 0.00233597 0.00296149 0.00327899 0.00412894 0.00296149 0.00370849 0.00412894 0.00495526 0.00241384 0.00320573 0.00370849 0.00455366 0.00320573 0.00411635 0.00455366 0.00547435 0.00370849 0.00455366 0.00495526 0.00577854 0.00455366 0.00547435 0.00577854 0.00675291 0.000967885 0.00132142 0.00143699 0.00194845 0.00132142 0.00181856 0.00194845 0.00251954 0.00143699 0.00194845 0.00205732 0.00256396 0.00194845 0.00251954 0.00256396 0.00316722 0.00181856 0.00248132 0.00251954 0.0031435 0.00248132 0.00327899 0.0031435 0.00385538 0.00251954 0.0031435 0.00316722 0.00388072 0.0031435 0.00385538 0.00388072 0.00473242 0.00205732 0.00256396 0.00292608 0.0035173 0.00256396 0.00316722 0.0035173 0.00425246 0.00292608 0.0035173 0.00421298 0.00500185 0.0035173 0.00425246 0.00500185 0.00581412 0.00316722 0.00388072 0.00425246 0.00516555 0.00388072 0.00473242 0.00516555 0.00622974 0.00425246 0.00516555 0.00581412 0.00665302 0.00516555 0.00622974 0.00665302 0.00758377 0.00327899 0.00412894 0.00385538 0.00472842 0.00412894 0.00495526 0.00472842 0.00583227 0.00385538 0.00472842 0.00473242 0.00577517 0.00472842 0.00583227 0.00577517 0.00706053 0.00495526 0.00577854 0.00583227 0.00718165 0.00577854 0.00675291 0.00718165 0.00872054 0.00583227 0.00718165 0.00706053 0.00857929 0.00718165 0.00872054 0.00857929 0.0102438 0.00473242 0.00577517 0.00622974 0.00735966 0.00577517 0.00706053 0.00735966 0.00849904 0.00622974 0.00735966 0.00758377 0.00868729 0.00735966 0.00849904 0.00868729 0.00996146 0.00706053 0.00857929 0.00849904 0.00971958 0.00857929 0.0102438 0.00971958 0.0111814 0.00849904 0.00971958 0.00996146 0.0113098 0.00971958 0.0111814 0.0113098 0.0126988 0 0.000416527 0 0.000632242 0.000416527 0.00083963 0.000632242 0.00127133 0 0.000632242 0 0.000831563 0.000632242 0.00127133 0.000831563 0.00166878 0.00083963 0.00127766 0.00127133 0.00192265 0.00127766 0.00174265 0.00192265 0.00258884 0.00127133 0.00192265 0.00166878 0.00251793 0.00192265 0.00258884 0.00251793 0.00338588 0 0.000831563 0 0.00101299 0.000831563 0.00166878 0.00101299 0.0020294 0 0.00101299 0 0.0011682 0.00101299 0.0020294 0.0011682 0.00234625 0.00166878 0.00251793 0.0020294 0.00305268 0.00251793 0.00338588 0.00305268 0.00408751 0.0020294 0.00305268 0.00234625 0.00354312 0.00305268 0.00408751 0.00354312 0.00476492 0.00174265 0.0022517 0.00258884 0.00326984 0.0022517 0.00282519 0.00326984 0.00396634 0.00258884 0.00326984 0.00338588 0.00427804 0.00326984 0.00396634 0.00427804 0.0051941 0.00282519 0.00347923 0.00396634 0.00468739 0.00347923 0.00421298 0.00468739 0.00545711 0.00396634 0.00468739 0.0051941 0.00612415 0.00468739 0.00545711 0.00612415 0.00705371 0.00338588 0.00427804 0.00408751 0.00514295 0.00427804 0.0051941 0.00514295 0.00623617 0.00408751 0.00514295 0.00476492 0.00601188 0.00514295 0.00623617 0.00601188 0.00727748 0.0051941 0.00612415 0.00623617 0.00739095 0.00612415 0.00705371 0.00739095 0.00862331 0.00623617 0.00739095 0.00727748 0.00855575 0.00739095 0.00862331 0.00855575 0.00985943 0 0.0011682 0 0.00127848 0.0011682 0.00234625 0.00127848 0.00256133 0 0.00127848 0 0.00135654 0.00127848 0.00256133 0.00135654 0.00271704 0.00234625 0.00354312 0.00256133 0.00385439 0.00354312 0.00476492 0.00385439 0.00516704 0.00256133 0.00385439 0.00271704 0.0040831 0.00385439 0.00516704 0.0040831 0.00545193 0 0.00135654 0 0.00135882 0.00135654 0.00271704 0.00135882 0.00272013 0 0.00135882 0 0.00142464 0.00135882 0.00272013 0.00142464 0.00284737 0.00271704 0.0040831 0.00272013 0.00408874 0.0040831 0.00545193 0.00408874 0.00547283 0.00272013 0.00408874 0.00284737 0.0042653 0.00408874 0.00547283 0.0042653 0.00567612 0.00476492 0.00601188 0.00516704 0.0065131 0.00601188 0.00727748 0.0065131 0.00790722 0.00516704 0.0065131 0.00545193 0.00681728 0.0065131 0.00790722 0.00681728 0.0081761 0.00727748 0.00855575 0.00790722 0.00935187 0.00855575 0.00985943 0.00935187 0.0108208 0.00790722 0.00935187 0.0081761 0.00954253 0.00935187 0.0108208 0.00954253 0.0109553 0.00545193 0.00681728 0.00547283 0.00688126 0.00681728 0.0081761 0.00688126 0.00831577 0.00547283 0.00688126 0.00567612 0.00708215 0.00688126 0.00831577 0.00708215 0.00849885 0.0081761 0.00954253 0.00831577 0.00976176 0.00954253 0.0109553 0.00976176 0.0111953 0.00831577 0.00976176 0.00849885 0.00995458 0.00976176 0.0111953 0.00995458 0.0114707 0.00421298 0.00500185 0.00545711 0.00630803 0.00500185 0.00581412 0.00630803 0.0072539 0.00545711 0.00630803 0.00705371 0.00798554 0.00630803 0.0072539 0.00798554 0.00896684 0.00581412 0.00665302 0.0072539 0.00826415 0.00665302 0.00758377 0.00826415 0.00929064 0.0072539 0.00826415 0.00896684 0.0100801 0.00826415 0.00929064 0.0100801 0.0113675 0.00705371 0.00798554 0.00862331 0.0099165 0.00798554 0.00896684 0.0099165 0.0112137 0.00862331 0.0099165 0.00985943 0.0112342 0.0099165 0.0112137 0.0112342 0.0127337 0.00896684 0.0100801 0.0112137 0.0124678 0.0100801 0.0113675 0.0124678 0.0137281 0.0112137 0.0124678 0.0127337 0.0143434 0.0124678 0.0137281 0.0143434 0.0159299 0.00758377 0.00868729 0.00929064 0.0103562 0.00868729 0.00996146 0.0103562 0.0115976 0.00929064 0.0103562 0.0113675 0.0127541 0.0103562 0.0115976 0.0127541 0.0141175 0.00996146 0.0113098 0.0115976 0.0131356 0.0113098 0.0126988 0.0131356 0.0148896 0.0115976 0.0131356 0.0141175 0.0154955 0.0131356 0.0148896 0.0154955 0.0171171 0.0113675 0.0127541 0.0137281 0.0151367 0.0127541 0.0141175 0.0151367 0.0167439 0.0137281 0.0151367 0.0159299 0.0173486 0.0151367 0.0167439 0.0173486 0.0186627 0.0141175 0.0154955 0.0167439 0.0183472 0.0154955 0.0171171 0.0183472 0.0197123 0.0167439 0.0183472 0.0186627 0.0201368 0.0183472 0.0197123 0.0201368 0.0218551 0.00985943 0.0112342 0.0108208 0.0122619 0.0112342 0.0127337 0.0122619 0.0136472 0.0108208 0.0122619 0.0109553 0.012457 0.0122619 0.0136472 0.012457 0.0140378 0.0127337 0.0143434 0.0136472 0.0150416 0.0143434 0.0159299 0.0150416 0.0165833 0.0136472 0.0150416 0.0140378 0.0156116 0.0150416 0.0165833 0.0156116 0.0171134 0.0109553 0.012457 0.0111953 0.0126185 0.012457 0.0140378 0.0126185 0.0141021 0.0111953 0.0126185 0.0114707 0.0130179 0.0126185 0.0141021 0.0130179 0.014502 0.0140378 0.0156116 0.0141021 0.015745 0.0156116 0.0171134 0.015745 0.0175286 0.0141021 0.015745 0.014502 0.0158521 0.015745 0.0175286 0.0158521 0.0171577 0.0159299 0.0173486 0.0165833 0.0183135 0.0173486 0.0186627 0.0183135 0.0200577 0.0165833 0.0183135 0.0171134 0.0186597 0.0183135 0.0200577 0.0186597 0.0204749 0.0186627 0.0201368 0.0200577 0.0216555 0.0201368 0.0218551 0.0216555 0.023302 0.0200577 0.0216555 0.0204749 0.0225123 0.0216555 0.023302 0.0225123 0.0243512 0.0171134 0.0186597 0.0175286 0.0192315 0.0186597 0.0204749 0.0192315 0.0206782 0.0175286 0.0192315 0.0171577 0.0186291 0.0192315 0.0206782 0.0186291 0.0202757 0.0204749 0.0225123 0.0206782 0.02207 0.0225123 0.0243512 0.02207 0.0237572 0.0206782 0.02207 0.0202757 0.0218173 0.02207 0.0237572 0.0218173 0.0231758 0 0 0.00186205 0.00226838 0 0 0.00226838 0.00302252 0.00186205 0.00226838 0.00411635 0.00489446 0.00226838 0.00302252 0.00489446 0.00546004 0 0 0.00302252 0.00379385 0 0 0.00379385 0.00412979 0.00302252 0.00379385 0.00546004 0.00607619 0.00379385 0.00412979 0.00607619 0.00708396 0.00411635 0.00489446 0.00547435 0.00646646 0.00489446 0.00546004 0.00646646 0.00754744 0.00547435 0.00646646 0.00675291 0.00807781 0.00646646 0.00754744 0.00807781 0.00981363 0.00546004 0.00607619 0.00754744 0.0087733 0.00607619 0.00708396 0.0087733 0.0102636 0.00754744 0.0087733 0.00981363 0.0117664 0.0087733 0.0102636 0.0117664 0.0136385 0 0 0.00412979 0.00404655 0 0 0.00404655 0.0041545 0.00412979 0.00404655 0.00708396 0.00841946 0.00404655 0.0041545 0.00841946 0.00963542 0 0 0.0041545 0.0049392 0 0 0.0049392 0.00608615 0.0041545 0.0049392 0.00963542 0.0105665 0.0049392 0.00608615 0.0105665 0.0116399 0.00708396 0.00841946 0.0102636 0.0121145 0.00841946 0.00963542 0.0121145 0.014178 0.0102636 0.0121145 0.0136385 0.0154 0.0121145 0.014178 0.0154 0.0174161 0.00963542 0.0105665 0.014178 0.0160591 0.0105665 0.0116399 0.0160591 0.0175922 0.014178 0.0160591 0.0174161 0.0199571 0.0160591 0.0175922 0.0199571 0.0226841 0.00675291 0.00807781 0.00872054 0.0103657 0.00807781 0.00981363 0.0103657 0.0120909 0.00872054 0.0103657 0.0102438 0.0119687 0.0103657 0.0120909 0.0119687 0.0137643 0.00981363 0.0117664 0.0120909 0.0139733 0.0117664 0.0136385 0.0139733 0.0160914 0.0120909 0.0139733 0.0137643 0.0157196 0.0139733 0.0160914 0.0157196 0.0179238 0.0102438 0.0119687 0.0111814 0.0129577 0.0119687 0.0137643 0.0129577 0.0149629 0.0111814 0.0129577 0.0126988 0.0142883 0.0129577 0.0149629 0.0142883 0.0162759 0.0137643 0.0157196 0.0149629 0.0171156 0.0157196 0.0179238 0.0171156 0.0194849 0.0149629 0.0171156 0.0162759 0.0186347 0.0171156 0.0194849 0.0186347 0.0211733 0.0136385 0.0154 0.0160914 0.0183515 0.0154 0.0174161 0.0183515 0.0205894 0.0160914 0.0183515 0.0179238 0.0204401 0.0183515 0.0205894 0.0204401 0.0232437 0.0174161 0.0199571 0.0205894 0.022983 0.0199571 0.0226841 0.022983 0.0259999 0.0205894 0.022983 0.0232437 0.0261521 0.022983 0.0259999 0.0261521 0.0290618 0.0179238 0.0204401 0.0194849 0.0221899 0.0204401 0.0232437 0.0221899 0.02524 0.0194849 0.0221899 0.0211733 0.0238113 0.0221899 0.02524 0.0238113 0.0265902 0.0232437 0.0261521 0.02524 0.0284752 0.0261521 0.0290618 0.0284752 0.0315875 0.02524 0.0284752 0.0265902 0.0295797 0.0284752 0.0315875 0.0295797 0.0329587 0 0 0.00608615 0.00691848 0 0 0.00691848 0.00735646 0.00608615 0.00691848 0.0116399 0.0131814 0.00691848 0.00735646 0.0131814 0.0148212 0 0 0.00735646 0.00789448 0 0 0.00789448 0.00877541 0.00735646 0.00789448 0.0148212 0.0161523 0.00789448 0.00877541 0.0161523 0.0175203 0.0116399 0.0131814 0.0175922 0.0192012 0.0131814 0.0148212 0.0192012 0.0213839 0.0175922 0.0192012 0.0226841 0.0251093 0.0192012 0.0213839 0.0251093 0.0274711 0.0148212 0.0161523 0.0213839 0.0239525 0.0161523 0.0175203 0.0239525 0.0262843 0.0213839 0.0239525 0.0274711 0.0303218 0.0239525 0.0262843 0.0303218 0.0333213 0 0 0.00877541 0.00987429 0 0 0.00987429 0.0111634 0.00877541 0.00987429 0.0175203 0.0193947 0.00987429 0.0111634 0.0193947 0.0214161 0 0 0.0111634 0.0124295 0 0 0.0124295 0.0129406 0.0111634 0.0124295 0.0214161 0.0229218 0.0124295 0.0129406 0.0229218 0.0239559 0.0175203 0.0193947 0.0262843 0.0281584 0.0193947 0.0214161 0.0281584 0.0298396 0.0262843 0.0281584 0.0333213 0.0356619 0.0281584 0.0298396 0.0356619 0.0376412 0.0214161 0.0229218 0.0298396 0.0316733 0.0229218 0.0239559 0.0316733 0.0339955 0.0298396 0.0316733 0.0376412 0.0403247 0.0316733 0.0339955 0.0403247 0.0437711 0.0226841 0.0251093 0.0259999 0.0295582 0.0251093 0.0274711 0.0295582 0.032802 0.0259999 0.0295582 0.0290618 0.0322175 0.0295582 0.032802 0.0322175 0.0357738 0.0274711 0.0303218 0.032802 0.0353733 0.0303218 0.0333213 0.0353733 0.0381289 0.032802 0.0353733 0.0357738 0.0393633 0.0353733 0.0381289 0.0393633 0.0428897 0.0290618 0.0322175 0.0315875 0.0345117 0.0322175 0.0357738 0.0345117 0.0379075 0.0315875 0.0345117 0.0329587 0.0367946 0.0345117 0.0379075 0.0367946 0.0407691 0.0357738 0.0393633 0.0379075 0.0423963 0.0393633 0.0428897 0.0423963 0.04726 0.0379075 0.0423963 0.0407691 0.0447603 0.0423963 0.04726 0.0447603 0.0490711 0.0333213 0.0356619 0.0381289 0.0417525 0.0356619 0.0376412 0.0417525 0.0456748 0.0381289 0.0417525 0.0428897 0.0470277 0.0417525 0.0456748 0.0470277 0.0518386 0.0376412 0.0403247 0.0456748 0.0491808 0.0403247 0.0437711 0.0491808 0.0523729 0.0456748 0.0491808 0.0518386 0.0561344 0.0491808 0.0523729 0.0561344 0.0593659 0.0428897 0.0470277 0.04726 0.0513817 0.0470277 0.0518386 0.0513817 0.0551828 0.04726 0.0513817 0.0490711 0.0534031 0.0513817 0.0551828 0.0534031 0.0571472 0.0518386 0.0561344 0.0551828 0.0596098 0.0561344 0.0593659 0.0596098 0.0641249 0.0551828 0.0596098 0.0571472 0.0609626 0.0596098 0.0641249 0.0609626 0.0657427 0.0126988 0.0142883 0.0148896 0.0166593 0.0142883 0.0162759 0.0166593 0.0184535 0.0148896 0.0166593 0.0171171 0.0190543 0.0166593 0.0184535 0.0190543 0.0209866 0.0162759 0.0186347 0.0184535 0.0205089 0.0186347 0.0211733 0.0205089 0.0228567 0.0184535 0.0205089 0.0209866 0.0226608 0.0205089 0.0228567 0.0226608 0.0244309 0.0171171 0.0190543 0.0197123 0.0210075 0.0190543 0.0209866 0.0210075 0.0226861 0.0197123 0.0210075 0.0218551 0.023527 0.0210075 0.0226861 0.023527 0.0250135 0.0209866 0.0226608 0.0226861 0.0247812 0.0226608 0.0244309 0.0247812 0.0268546 0.0226861 0.0247812 0.0250135 0.0267281 0.0247812 0.0268546 0.0267281 0.0288751 0.0211733 0.0238113 0.0228567 0.0252458 0.0238113 0.0265902 0.0252458 0.0277034 0.0228567 0.0252458 0.0244309 0.0267893 0.0252458 0.0277034 0.0267893 0.0295835 0.0265902 0.0295797 0.0277034 0.0306422 0.0295797 0.0329587 0.0306422 0.0342283 0.0277034 0.0306422 0.0295835 0.0324011 0.0306422 0.0342283 0.0324011 0.0352592 0.0244309 0.0267893 0.0268546 0.0288658 0.0267893 0.0295835 0.0288658 0.0312089 0.0268546 0.0288658 0.0288751 0.0308121 0.0288658 0.0312089 0.0308121 0.0321898 0.0295835 0.0324011 0.0312089 0.0336813 0.0324011 0.0352592 0.0336813 0.0357676 0.0312089 0.0336813 0.0321898 0.0338009 0.0336813 0.0357676 0.0338009 0.0360318 0.0218551 0.023527 0.023302 0.0252876 0.023527 0.0250135 0.0252876 0.027313 0.023302 0.0252876 0.0243512 0.0258194 0.0252876 0.027313 0.0258194 0.0273909 0.0250135 0.0267281 0.027313 0.0287699 0.0267281 0.0288751 0.0287699 0.0298809 0.027313 0.0287699 0.0273909 0.0293184 0.0287699 0.0298809 0.0293184 0.0310225 0.0243512 0.0258194 0.0237572 0.0255896 0.0258194 0.0273909 0.0255896 0.0271597 0.0237572 0.0255896 0.0231758 0.0248 0.0255896 0.0271597 0.0248 0.0268258 0.0273909 0.0293184 0.0271597 0.0287673 0.0293184 0.0310225 0.0287673 0.0309658 0.0271597 0.0287673 0.0268258 0.028641 0.0287673 0.0309658 0.028641 0.0300955 0.0288751 0.0308121 0.0298809 0.0314435 0.0308121 0.0321898 0.0314435 0.0332743 0.0298809 0.0314435 0.0310225 0.0323007 0.0314435 0.0332743 0.0323007 0.0340039 0.0321898 0.0338009 0.0332743 0.0347132 0.0338009 0.0360318 0.0347132 0.0363572 0.0332743 0.0347132 0.0340039 0.0361311 0.0347132 0.0363572 0.0361311 0.0376025 0.0310225 0.0323007 0.0309658 0.0332067 0.0323007 0.0340039 0.0332067 0.0346923 0.0309658 0.0332067 0.0300955 0.0319661 0.0332067 0.0346923 0.0319661 0.034192 0.0340039 0.0361311 0.0346923 0.0362361 0.0361311 0.0376025 0.0362361 0.0383221 0.0346923 0.0362361 0.034192 0.0356275 0.0362361 0.0383221 0.0356275 0.0368278 0.0329587 0.0367946 0.0342283 0.0382111 0.0367946 0.0407691 0.0382111 0.0421952 0.0342283 0.0382111 0.0352592 0.0382625 0.0382111 0.0421952 0.0382625 0.0414231 0.0407691 0.0447603 0.0421952 0.0457557 0.0447603 0.0490711 0.0457557 0.0490913 0.0421952 0.0457557 0.0414231 0.0448927 0.0457557 0.0490913 0.0448927 0.0485036 0.0352592 0.0382625 0.0357676 0.0378166 0.0382625 0.0414231 0.0378166 0.0404203 0.0357676 0.0378166 0.0360318 0.0382197 0.0378166 0.0404203 0.0382197 0.0403209 0.0414231 0.0448927 0.0404203 0.0435575 0.0448927 0.0485036 0.0435575 0.0471068 0.0404203 0.0435575 0.0403209 0.0428348 0.0435575 0.0471068 0.0428348 0.0457535 0.0490711 0.0534031 0.0490913 0.0531004 0.0534031 0.0571472 0.0531004 0.0576597 0.0490913 0.0531004 0.0485036 0.0520989 0.0531004 0.0576597 0.0520989 0.0562922 0.0571472 0.0609626 0.0576597 0.0616716 0.0609626 0.0657427 0.0616716 0.0655637 0.0576597 0.0616716 0.0562922 0.0610405 0.0616716 0.0655637 0.0610405 0.065224 0.0485036 0.0520989 0.0471068 0.0507856 0.0520989 0.0562922 0.0507856 0.0544336 0.0471068 0.0507856 0.0457535 0.0490721 0.0507856 0.0544336 0.0490721 0.0524991 0.0562922 0.0610405 0.0544336 0.0587208 0.0610405 0.065224 0.0587208 0.0633877 0.0544336 0.0587208 0.0524991 0.0556003 0.0587208 0.0633877 0.0556003 0.0590667 0.0360318 0.0382197 0.0363572 0.0387149 0.0382197 0.0403209 0.0387149 0.0409226 0.0363572 0.0387149 0.0376025 0.0389209 0.0387149 0.0409226 0.0389209 0.0410267 0.0403209 0.0428348 0.0409226 0.0428189 0.0428348 0.0457535 0.0428189 0.0450374 0.0409226 0.0428189 0.0410267 0.0429462 0.0428189 0.0450374 0.0429462 0.0441937 0.0376025 0.0389209 0.0383221 0.0396205 0.0389209 0.0410267 0.0396205 0.0403384 0.0383221 0.0396205 0.0368278 0.0385516 0.0396205 0.0403384 0.0385516 0.039309 0.0410267 0.0429462 0.0403384 0.041648 0.0429462 0.0441937 0.041648 0.042699