<?xml version="1.0" ?> 
<!-- 
# vtk DataFile Version 3.0
#This file was generated by the deal.II library on 23:53:53 at 2021/5/3
-->
<VTKFile type="UnstructuredGrid" version="0.1" byte_order="LittleEndian">
<UnstructuredGrid>
<FieldData>
<DataArray type="Float32" Name="CYCLE" NumberOfTuples="1" format="ascii">150</DataArray>
<DataArray type="Float32" Name="TIME" NumberOfTuples="1" format="ascii">0.3</DataArray>
</FieldData>
<Piece NumberOfPoints="7356" NumberOfCells="1839" >
  <Points>
    <DataArray type="Float32" NumberOfComponents="3" format="ascii">
-1 -1 0
-0.75 -1 0
-1 -0.75 0
-0.75 -0.75 0
-0.75 -1 0
-0.5 -1 0
-0.75 -0.75 0
-0.5 -0.75 0
-1 -0.75 0
-0.75 -0.75 0
-1 -0.5 0
-0.75 -0.5 0
-0.75 -0.75 0
-0.5 -0.75 0
-0.75 -0.5 0
-0.5 -0.5 0
-1 0.75 0
-0.75 0.75 0
-1 1 0
-0.75 1 0
0.875 -1 0
1 -1 0
0.875 -0.875 0
1 -0.875 0
0 -1 0
0.125 -1 0
0 -0.875 0
0.125 -0.875 0
0.125 -1 0
0.25 -1 0
0.125 -0.875 0
0.25 -0.875 0
-0.75 -0.25 0
-0.625 -0.25 0
-0.75 -0.125 0
-0.625 -0.125 0
-0.625 -0.25 0
-0.5 -0.25 0
-0.625 -0.125 0
-0.5 -0.125 0
-0.625 -0.125 0
-0.5 -0.125 0
-0.625 0 0
-0.5 0 0
-0.5 -0.25 0
-0.375 -0.25 0
-0.5 -0.125 0
-0.375 -0.125 0
-0.375 -0.25 0
-0.25 -0.25 0
-0.375 -0.125 0
-0.25 -0.125 0
-0.5 -0.125 0
-0.375 -0.125 0
-0.5 0 0
-0.375 0 0
-0.5 -0.75 0
-0.375 -0.75 0
-0.5 -0.625 0
-0.375 -0.625 0
-0.5 -0.625 0
-0.375 -0.625 0
-0.5 -0.5 0
-0.375 -0.5 0
-0.375 -0.625 0
-0.25 -0.625 0
-0.375 -0.5 0
-0.25 -0.5 0
0.25 -1 0
0.375 -1 0
0.25 -0.875 0
0.375 -0.875 0
0.375 -1 0
0.5 -1 0
0.375 -0.875 0
0.5 -0.875 0
-0.25 -0.25 0
-0.125 -0.25 0
-0.25 -0.125 0
-0.125 -0.125 0
-0.25 -0.125 0
-0.125 -0.125 0
-0.25 0 0
-0.125 0 0
-1 0.25 0
-0.875 0.25 0
-1 0.375 0
-0.875 0.375 0
-1 0.375 0
-0.875 0.375 0
-1 0.5 0
-0.875 0.5 0
-0.75 0.25 0
-0.625 0.25 0
-0.75 0.375 0
-0.625 0.375 0
-0.625 0.25 0
-0.5 0.25 0
-0.625 0.375 0
-0.5 0.375 0
-0.75 0.375 0
-0.625 0.375 0
-0.75 0.5 0
-0.625 0.5 0
-0.625 0.375 0
-0.5 0.375 0
-0.625 0.5 0
-0.5 0.5 0
-0.25 0 0
-0.125 0 0
-0.25 0.125 0
-0.125 0.125 0
-0.25 0.125 0
-0.125 0.125 0
-0.25 0.25 0
-0.125 0.25 0
-0.125 0.125 0
0 0.125 0
-0.125 0.25 0
0 0.25 0
-1 0.5 0
-0.875 0.5 0
-1 0.625 0
-0.875 0.625 0
-1 0.625 0
-0.875 0.625 0
-1 0.75 0
-0.875 0.75 0
-0.875 0.625 0
-0.75 0.625 0
-0.875 0.75 0
-0.75 0.75 0
-0.5 -1 0
-0.375 -1 0
-0.5 -0.875 0
-0.375 -0.875 0
-0.375 -1 0
-0.25 -1 0
-0.375 -0.875 0
-0.25 -0.875 0
-0.5 -0.875 0
-0.375 -0.875 0
-0.5 -0.75 0
-0.375 -0.75 0
-0.5 -0.5 0
-0.375 -0.5 0
-0.5 -0.375 0
-0.375 -0.375 0
-0.375 -0.5 0
-0.25 -0.5 0
-0.375 -0.375 0
-0.25 -0.375 0
-0.5 -0.375 0
-0.375 -0.375 0
-0.5 -0.25 0
-0.375 -0.25 0
-0.375 -0.375 0
-0.25 -0.375 0
-0.375 -0.25 0
-0.25 -0.25 0
-0.25 -1 0
-0.125 -1 0
-0.25 -0.875 0
-0.125 -0.875 0
-0.125 -1 0
0 -1 0
-0.125 -0.875 0
0 -0.875 0
-0.25 -0.875 0
-0.125 -0.875 0
-0.25 -0.75 0
-0.125 -0.75 0
-1 -0.5 0
-0.875 -0.5 0
-1 -0.375 0
-0.875 -0.375 0
-0.875 -0.5 0
-0.75 -0.5 0
-0.875 -0.375 0
-0.75 -0.375 0
-1 -0.375 0
-0.875 -0.375 0
-1 -0.25 0
-0.875 -0.25 0
-0.875 -0.375 0
-0.75 -0.375 0
-0.875 -0.25 0
-0.75 -0.25 0
-0.75 -0.5 0
-0.625 -0.5 0
-0.75 -0.375 0
-0.625 -0.375 0
-0.625 -0.5 0
-0.5 -0.5 0
-0.625 -0.375 0
-0.5 -0.375 0
-0.75 -0.375 0
-0.625 -0.375 0
-0.75 -0.25 0
-0.625 -0.25 0
-0.625 -0.375 0
-0.5 -0.375 0
-0.625 -0.25 0
-0.5 -0.25 0
-1 -0.25 0
-0.875 -0.25 0
-1 -0.125 0
-0.875 -0.125 0
-0.875 -0.25 0
-0.75 -0.25 0
-0.875 -0.125 0
-0.75 -0.125 0
-1 -0.125 0
-0.875 -0.125 0
-1 0 0
-0.875 0 0
-0.875 -0.125 0
-0.75 -0.125 0
-0.875 0 0
-0.75 0 0
-0.5 0.25 0
-0.375 0.25 0
-0.5 0.375 0
-0.375 0.375 0
-0.375 0.25 0
-0.25 0.25 0
-0.375 0.375 0
-0.25 0.375 0
-0.5 0.375 0
-0.375 0.375 0
-0.5 0.5 0
-0.375 0.5 0
-0.375 0.375 0
-0.25 0.375 0
-0.375 0.5 0
-0.25 0.5 0
-0.25 0.25 0
-0.125 0.25 0
-0.25 0.375 0
-0.125 0.375 0
-0.125 0.25 0
0 0.25 0
-0.125 0.375 0
0 0.375 0
-0.25 0.375 0
-0.125 0.375 0
-0.25 0.5 0
-0.125 0.5 0
-0.125 0.375 0
0 0.375 0
-0.125 0.5 0
0 0.5 0
-1 0 0
-0.875 0 0
-1 0.125 0
-0.875 0.125 0
-1 0.125 0
-0.875 0.125 0
-1 0.25 0
-0.875 0.25 0
-0.875 0.125 0
-0.75 0.125 0
-0.875 0.25 0
-0.75 0.25 0
-0.75 0.5 0
-0.625 0.5 0
-0.75 0.625 0
-0.625 0.625 0
-0.625 0.5 0
-0.5 0.5 0
-0.625 0.625 0
-0.5 0.625 0
-0.75 0.625 0
-0.625 0.625 0
-0.75 0.75 0
-0.625 0.75 0
-0.625 0.625 0
-0.5 0.625 0
-0.625 0.75 0
-0.5 0.75 0
-0.25 0.75 0
-0.125 0.75 0
-0.25 0.875 0
-0.125 0.875 0
-0.125 0.75 0
0 0.75 0
-0.125 0.875 0
0 0.875 0
-0.25 0.875 0
-0.125 0.875 0
-0.25 1 0
-0.125 1 0
-0.125 0.875 0
0 0.875 0
-0.125 1 0
0 1 0
-0.75 0.75 0
-0.625 0.75 0
-0.75 0.875 0
-0.625 0.875 0
-0.625 0.75 0
-0.5 0.75 0
-0.625 0.875 0
-0.5 0.875 0
-0.75 0.875 0
-0.625 0.875 0
-0.75 1 0
-0.625 1 0
-0.625 0.875 0
-0.5 0.875 0
-0.625 1 0
-0.5 1 0
-0.5 0.5 0
-0.375 0.5 0
-0.5 0.625 0
-0.375 0.625 0
-0.375 0.5 0
-0.25 0.5 0
-0.375 0.625 0
-0.25 0.625 0
-0.5 0.625 0
-0.375 0.625 0
-0.5 0.75 0
-0.375 0.75 0
-0.375 0.625 0
-0.25 0.625 0
-0.375 0.75 0
-0.25 0.75 0
-0.25 0.5 0
-0.125 0.5 0
-0.25 0.625 0
-0.125 0.625 0
-0.125 0.5 0
0 0.5 0
-0.125 0.625 0
0 0.625 0
-0.125 0.625 0
0 0.625 0
-0.125 0.75 0
0 0.75 0
-0.5 0.75 0
-0.375 0.75 0
-0.5 0.875 0
-0.375 0.875 0
-0.5 0.875 0
-0.375 0.875 0
-0.5 1 0
-0.375 1 0
-0.375 0.875 0
-0.25 0.875 0
-0.375 1 0
-0.25 1 0
0.75 -0.875 0
0.8125 -0.875 0
0.75 -0.8125 0
0.8125 -0.8125 0
0.8125 -0.875 0
0.875 -0.875 0
0.8125 -0.8125 0
0.875 -0.8125 0
0.75 -1 0
0.8125 -1 0
0.75 -0.9375 0
0.8125 -0.9375 0
0.8125 -1 0
0.875 -1 0
0.8125 -0.9375 0
0.875 -0.9375 0
0.8125 -0.9375 0
0.875 -0.9375 0
0.8125 -0.875 0
0.875 -0.875 0
0.25 -0.625 0
0.3125 -0.625 0
0.25 -0.5625 0
0.3125 -0.5625 0
0.5 -0.875 0
0.5625 -0.875 0
0.5 -0.8125 0
0.5625 -0.8125 0
0.5625 -0.875 0
0.625 -0.875 0
0.5625 -0.8125 0
0.625 -0.8125 0
0.625 -0.875 0
0.6875 -0.875 0
0.625 -0.8125 0
0.6875 -0.8125 0
0.6875 -0.875 0
0.75 -0.875 0
0.6875 -0.8125 0
0.75 -0.8125 0
0.9375 -0.75 0
1 -0.75 0
0.9375 -0.6875 0
1 -0.6875 0
0.9375 -0.6875 0
1 -0.6875 0
0.9375 -0.625 0
1 -0.625 0
0.25 -0.0625 0
0.3125 -0.0625 0
0.25 0 0
0.3125 0 0
0.875 -0.875 0
0.9375 -0.875 0
0.875 -0.8125 0
0.9375 -0.8125 0
0.9375 -0.875 0
1 -0.875 0
0.9375 -0.8125 0
1 -0.8125 0
0.875 -0.8125 0
0.9375 -0.8125 0
0.875 -0.75 0
0.9375 -0.75 0
0.9375 -0.8125 0
1 -0.8125 0
0.9375 -0.75 0
1 -0.75 0
-0.125 -0.4375 0
-0.0625 -0.4375 0
-0.125 -0.375 0
-0.0625 -0.375 0
-0.0625 -0.4375 0
0 -0.4375 0
-0.0625 -0.375 0
0 -0.375 0
0.125 -0.5625 0
0.1875 -0.5625 0
0.125 -0.5 0
0.1875 -0.5 0
0.1875 -0.5625 0
0.25 -0.5625 0
0.1875 -0.5 0
0.25 -0.5 0
0.0625 -0.4375 0
0.125 -0.4375 0
0.0625 -0.375 0
0.125 -0.375 0
0.125 -0.5 0
0.1875 -0.5 0
0.125 -0.4375 0
0.1875 -0.4375 0
0.1875 -0.5 0
0.25 -0.5 0
0.1875 -0.4375 0
0.25 -0.4375 0
0.0625 -0.1875 0
0.125 -0.1875 0
0.0625 -0.125 0
0.125 -0.125 0
0.125 -0.125 0
0.1875 -0.125 0
0.125 -0.0625 0
0.1875 -0.0625 0
0.1875 -0.125 0
0.25 -0.125 0
0.1875 -0.0625 0
0.25 -0.0625 0
0.125 -0.0625 0
0.1875 -0.0625 0
0.125 0 0
0.1875 0 0
0.1875 -0.0625 0
0.25 -0.0625 0
0.1875 0 0
0.25 0 0
-0.125 -0.375 0
-0.0625 -0.375 0
-0.125 -0.3125 0
-0.0625 -0.3125 0
-0.0625 -0.375 0
0 -0.375 0
-0.0625 -0.3125 0
0 -0.3125 0
-0.125 -0.3125 0
-0.0625 -0.3125 0
-0.125 -0.25 0
-0.0625 -0.25 0
-0.0625 -0.3125 0
0 -0.3125 0
-0.0625 -0.25 0
0 -0.25 0
0.375 -0.875 0
0.4375 -0.875 0
0.375 -0.8125 0
0.4375 -0.8125 0
0.4375 -0.875 0
0.5 -0.875 0
0.4375 -0.8125 0
0.5 -0.8125 0
0.4375 -0.8125 0
0.5 -0.8125 0
0.4375 -0.75 0
0.5 -0.75 0
0.5 -1 0
0.5625 -1 0
0.5 -0.9375 0
0.5625 -0.9375 0
0.5625 -1 0
0.625 -1 0
0.5625 -0.9375 0
0.625 -0.9375 0
0.5 -0.9375 0
0.5625 -0.9375 0
0.5 -0.875 0
0.5625 -0.875 0
0.625 -1 0
0.6875 -1 0
0.625 -0.9375 0
0.6875 -0.9375 0
0.6875 -1 0
0.75 -1 0
0.6875 -0.9375 0
0.75 -0.9375 0
0 -0.75 0
0.0625 -0.75 0
0 -0.6875 0
0.0625 -0.6875 0
-0.25 -0.375 0
-0.1875 -0.375 0
-0.25 -0.3125 0
-0.1875 -0.3125 0
-0.25 -0.3125 0
-0.1875 -0.3125 0
-0.25 -0.25 0
-0.1875 -0.25 0
-0.1875 -0.3125 0
-0.125 -0.3125 0
-0.1875 -0.25 0
-0.125 -0.25 0
-0.125 -0.25 0
-0.0625 -0.25 0
-0.125 -0.1875 0
-0.0625 -0.1875 0
-0.0625 -0.25 0
0 -0.25 0
-0.0625 -0.1875 0
0 -0.1875 0
-0.125 -0.1875 0
-0.0625 -0.1875 0
-0.125 -0.125 0
-0.0625 -0.125 0
-0.125 -0.125 0
-0.0625 -0.125 0
-0.125 -0.0625 0
-0.0625 -0.0625 0
-0.125 -0.0625 0
-0.0625 -0.0625 0
-0.125 0 0
-0.0625 0 0
-0.25 -0.625 0
-0.1875 -0.625 0
-0.25 -0.5625 0
-0.1875 -0.5625 0
-0.25 -0.5625 0
-0.1875 -0.5625 0
-0.25 -0.5 0
-0.1875 -0.5 0
-0.25 -0.5 0
-0.1875 -0.5 0
-0.25 -0.4375 0
-0.1875 -0.4375 0
-0.25 -0.4375 0
-0.1875 -0.4375 0
-0.25 -0.375 0
-0.1875 -0.375 0
-0.1875 -0.4375 0
-0.125 -0.4375 0
-0.1875 -0.375 0
-0.125 -0.375 0
-0.25 -0.75 0
-0.1875 -0.75 0
-0.25 -0.6875 0
-0.1875 -0.6875 0
-0.1875 -0.75 0
-0.125 -0.75 0
-0.1875 -0.6875 0
-0.125 -0.6875 0
-0.25 -0.6875 0
-0.1875 -0.6875 0
-0.25 -0.625 0
-0.1875 -0.625 0
-0.1875 -0.6875 0
-0.125 -0.6875 0
-0.1875 -0.625 0
-0.125 -0.625 0
-0.125 -0.75 0
-0.0625 -0.75 0
-0.125 -0.6875 0
-0.0625 -0.6875 0
-0.0625 -0.625 0
0 -0.625 0
-0.0625 -0.5625 0
0 -0.5625 0
-0.125 -0.5625 0
-0.0625 -0.5625 0
-0.125 -0.5 0
-0.0625 -0.5 0
-0.0625 -0.5625 0
0 -0.5625 0
-0.0625 -0.5 0
0 -0.5 0
-0.125 0 0
-0.0625 0 0
-0.125 0.0625 0
-0.0625 0.0625 0
-0.125 0.0625 0
-0.0625 0.0625 0
-0.125 0.125 0
-0.0625 0.125 0
-0.0625 0.0625 0
0 0.0625 0
-0.0625 0.125 0
0 0.125 0
0 -0.875 0
0.0625 -0.875 0
0 -0.8125 0
0.0625 -0.8125 0
0.0625 -0.875 0
0.125 -0.875 0
0.0625 -0.8125 0
0.125 -0.8125 0
0 -0.8125 0
0.0625 -0.8125 0
0 -0.75 0
0.0625 -0.75 0
0.0625 -0.8125 0
0.125 -0.8125 0
0.0625 -0.75 0
0.125 -0.75 0
0.125 -0.875 0
0.1875 -0.875 0
0.125 -0.8125 0
0.1875 -0.8125 0
0.1875 -0.875 0
0.25 -0.875 0
0.1875 -0.8125 0
0.25 -0.8125 0
0.125 -0.8125 0
0.1875 -0.8125 0
0.125 -0.75 0
0.1875 -0.75 0
0.1875 -0.8125 0
0.25 -0.8125 0
0.1875 -0.75 0
0.25 -0.75 0
0.125 -0.75 0
0.1875 -0.75 0
0.125 -0.6875 0
0.1875 -0.6875 0
0.1875 -0.75 0
0.25 -0.75 0
0.1875 -0.6875 0
0.25 -0.6875 0
0.125 -0.6875 0
0.1875 -0.6875 0
0.125 -0.625 0
0.1875 -0.625 0
0.1875 -0.6875 0
0.25 -0.6875 0
0.1875 -0.625 0
0.25 -0.625 0
-0.75 -0.125 0
-0.6875 -0.125 0
-0.75 -0.0625 0
[...]
  <PointData Scalars="scalars">
    <DataArray type="Float32" Name="U" format="ascii">
0 0 0 7.75316e-05 0 0 7.75316e-05 0.000170519 0 7.75316e-05 0 0.000166506 7.75316e-05 0.000170519 0.000166506 0.000332237 0 0.000271332 0 0 0 0 0.000494664 0 0 0 0.000413304 0.000600677 0 0 0.000600677 0.000815589 0.000268399 0.000378483 0.00032252 0.000444939 0.000378483 0.000470211 0.000444939 0.000529194 0.000444939 0.000529194 0.000506149 0.000582756 0.000470211 0.000556781 0.000529194 0.000580896 0.000556781 0.000664738 0.000580896 0.000611056 0.000529194 0.000580896 0.000582756 0.000595154 0.000170519 0.000243382 0.000251378 0.000351637 0.000251378 0.000351637 0.000332237 0.000444539 0.000351637 0.000506569 0.000444539 0.000619442 0 0 0.000815589 0.00101446 0 0 0.00101446 0.00112935 0.000664738 0.000836592 0.000611056 0.000638265 0.000611056 0.000638265 0.000546173 0.000412361 0 0.000239645 0 0.000241239 0 0.000241239 0 0.000226487 0.000447177 0.00058997 0.000447121 0.000599526 0.00058997 0.000657449 0.000599526 0.000615567 0.000447121 0.000599526 0.000425156 0.000520008 0.000599526 0.000615567 0.000520008 0.000852972 0.000546173 0.000412361 0.000501296 0.000298448 0.000501296 0.000298448 0.000494679 0.000281136 0.000298448 0 0.000281136 0 0 0.000226487 0 0.000189865 0 0.000189865 0 0.000135666 0.000189865 0.00036675 0.000135666 0.000271332 0 0 8.52596e-05 0.000122318 0 0 0.000122318 0.00018157 8.52596e-05 0.000122318 0.000170519 0.000243382 0.000332237 0.000444539 0.000404929 0.000513554 0.000444539 0.000619442 0.000513554 0.000675698 0.000404929 0.000513554 0.000470211 0.000556781 0.000513554 0.000675698 0.000556781 0.000664738 0 0 0.00018157 0.000275484 0 0 0.000275484 0.000413304 0.00018157 0.000275484 0.000354497 0.000534663 0 8.32529e-05 0 0.000110996 8.32529e-05 0.000166506 0.000110996 0.000216174 0 0.000110996 0 0.000139605 0.000110996 0.000216174 0.000139605 0.000268399 0.000166506 0.000249371 0.000216174 0.000312131 0.000249371 0.000332237 0.000312131 0.000404929 0.000216174 0.000312131 0.000268399 0.000378483 0.000312131 0.000404929 0.000378483 0.000470211 0 0.000139605 0 0.000169139 0.000139605 0.000268399 0.000169139 0.00032252 0 0.000169139 0 0.000198001 0.000169139 0.00032252 0.000198001 0.000373312 0.000657449 0.000630853 0.000615567 0.00053301 0.000630853 0.000494679 0.00053301 0.000408977 0.000615567 0.00053301 0.000852972 0.0010959 0.00053301 0.000408977 0.0010959 0.000919359 0.000494679 0.000281136 0.000408977 0.000176586 0.000281136 0 0.000176586 0 0.000408977 0.000176586 0.000919359 0.000800588 0.000176586 0 0.000800588 0 0 0.000198001 0 0.000223131 0 0.000223131 0 0.000239645 0.000223131 0.000416935 0.000239645 0.000447177 0.000425156 0.000520008 0.00036675 0.000395761 0.000520008 0.000852972 0.000395761 0.00104497 0.00036675 0.000395761 0.000271332 0.00027999 0.000395761 0.00104497 0.00027999 0.000858582 0.00122842 0.0012462 0.00124227 0.00136878 0.0012462 0 0.00136878 0 0.00124227 0.00136878 0 0 0.00136878 0 0 0 0.000271332 0.00027999 0.000135666 0.00010079 0.00027999 0.000858582 0.00010079 0.000761299 0.000135666 0.00010079 0 0 0.00010079 0.000761299 0 0 0.000852972 0.0010959 0.00104497 0.00161785 0.0010959 0.000919359 0.00161785 0.00140777 0.00104497 0.00161785 0.000858582 0.00138832 0.00161785 0.00140777 0.00138832 0.00122842 0.000919359 0.000800588 0.00140777 0.00142055 0.000800588 0 0.00142055 0 0.00142055 0 0.0012462 0 0.000858582 0.00138832 0.000761299 0.00140481 0.000761299 0.00140481 0 0 0.00140481 0.00124227 0 0 0.000881151 0.00070533 0.00130671 0.00104684 0.00070533 0.000494664 0.00104684 0.000730298 0 0 0.000443234 0.000354715 0 0 0.000354715 0.000247332 0.000354715 0.000247332 0.00070533 0.000494664 0.00220016 0.00248122 0.00242407 0.00273282 0.00112935 0.00113213 0.00166714 0.00167874 0.00113213 0.0010959 0.00167874 0.00162472 0.0010959 0.00101213 0.00162472 0.00150101 0.00101213 0.000881151 0.00150101 0.00130671 0.000492172 0 0.000596715 0 0.000596715 0 0.000691467 0 0.000600157 0.000673417 0 0 0.000494664 0.000247332 0.000730298 0.000375061 0.000247332 0 0.000375061 0 0.000730298 0.000375061 0.000954722 0.000492172 0.000375061 0 0.000492172 0 0.000924637 0.00111555 0.000928048 0.00110745 0.00111555 0.00134726 0.00110745 0.00132831 0.00178694 0.00209912 0.00189439 0.00222404 0.00209912 0.00242407 0.00222404 0.00256698 0.00161786 0.00192847 0.00158655 0.00188338 0.00189439 0.00222404 0.00192847 0.00226246 0.00222404 0.00256698 0.00226246 0.00260928 0.00107362 0.00124484 0.000771703 0.000882252 0.000882252 0.00101652 0.000459953 0.000524951 0.00101652 0.00116413 0.000524951 0.000600157 0.000459953 0.000524951 0 0 0.000524951 0.000600157 0 0 0.000928048 0.00110745 0.00089922 0.00105602 0.00110745 0.00132831 0.00105602 0.00125285 0.00089922 0.00105602 0.000836592 0.000960205 0.00105602 0.00125285 0.000960205 0.00112116 0.00101446 0.00107191 0.0014947 0.00160247 0.00107191 0.00112935 0.00160247 0.00166714 0.00160247 0.00166714 0.00209485 0.00217901 0 0 0.000564675 0.000569663 0 0 0.000569663 0.000551349 0.000564675 0.000569663 0.00112935 0.00113213 0 0 0.000551349 0.000509085 0 0 0.000509085 0.000443234 0.000803662 0.000972865 0.000975433 0.00118004 0.000675698 0.00078377 0.000670218 0.000774446 0.000670218 0.000774446 0.000664738 0.000750665 0.000774446 0.00089922 0.000750665 0.000836592 0.000836592 0.000960205 0.000737428 0.000826052 0.000960205 0.00112116 0.000826052 0.000932927 0.000737428 0.000826052 0.000638265 0.000660043 0.000638265 0.000660043 0.000525313 0.000467993 0.000525313 0.000467993 0.000412361 0.000292323 0.000506569 0.000614915 0.000563006 0.000686771 0.000563006 0.000686771 0.000619442 0.000739597 0.000619442 0.000739597 0.00064757 0.000772926 0.00064757 0.000772926 0.000675698 0.00078377 0.000772926 0.000924637 0.00078377 0.000928048 0.000354497 0.00044458 0.00043737 0.000531998 0.00044458 0.000534663 0.000531998 0.000652447 0.00043737 0.000531998 0.000506569 0.000614915 0.000531998 0.000652447 0.000614915 0.000753145 0.000534663 0.000656866 0.000652447 0.000798761 0.000921793 0.00112303 0.00101821 0.00124055 0.000834052 0.00101821 0.000893954 0.0010842 0.00101821 0.00124055 0.0010842 0.00131641 0.000412361 0.000292323 0.000355404 0.00019603 0.000355404 0.00019603 0.000298448 0.000149224 0.00019603 0 0.000149224 0 0.000413304 0.000506991 0.000616154 0.000745447 0.000506991 0.000600677 0.000745447 0.000891348 0.000616154 0.000745447 0.000803662 0.000972865 0.000745447 0.000891348 0.000972865 0.00116258 0.000600677 0.000708133 0.000891348 0.0010467 0.000708133 0.000815589 0.0010467 0.0012058 0.000891348 0.0010467 0.00116258 0.00136666 0.0010467 0.0012058 0.00136666 0.00157502 0.00116258 0.00136666 0.00141178 0.00165789 0.00136666 0.00157502 0.00165789 0.00191239 0.00141178 0.00165789 0.00162204 0.00190476 0.00165789 0.00191239 0.00190476 0.00220016 0.00032252 0.00038373 0.000347916 0.000417151 0.00038373 0.000444939 0.000417151 0.000475544 0.000347916 0.000417151 0.000373312 0.000445408 0.000417151 0.000475544 0.000445408 0.000506149 0.000580896 0.000595976 0.000588025 0.000587632 0.000595976 0.000611056 0.000587632 0.000578614 0.000588025 0.000587632 0.000595154 0.000578501 0.000587632 0.000578614 0.000578501 0.000546173 0.000243382 0.00029208 0.000297509 0.000359728 0.00029208 0.000354497 0.000359728 0.00043737 0.000297509 0.000359728 0.000351637 0.000429103 0.000359728 0.00043737 0.000429103 0.000506569 0.000815589 0.000915025 0.0012058 0.00135943 0.000915025 0.00101446 0.00135943 0.0014947 0.0012058 0.00135943 0.00157502 0.00177551 0.00135943 0.0014947 0.00177551 0.00195321 0.000373312 0.000445408 0.000394788 0.000471775 0.000445408 0.000506149 0.000471775 0.000531166 0.000394788 0.000471775 0.000416935 0.000493893 0.000471775 0.000531166 0.000493893 0.000555379 0.000506149 0.000544452 0.000531166 0.000575928 0.000544452 0.000582756 0.000575928 0.000600906 0.000531166 0.000575928 0.000555379 0.000598336 0.000575928 0.000600906 0.000598336 0.000621634 0.000416935 0.000493893 0.000432056 0.000512651 0.000493893 0.000555379 0.000512651 0.000573367 0.000432056 0.000512651 0.000447177 0.000518573 0.000512651 0.000573367 0.000518573 0.00058997 0.000555379 0.000598336 0.000573367 0.000617398 0.000598336 0.000621634 0.000617398 0.000636551 0.000573367 0.000617398 0.00058997 0.000623709 0.000617398 0.000636551 0.000623709 0.000657449 0.000239645 0.000343411 0.000240442 0.000351555 0.000343411 0.000447177 0.000351555 0.000447149 0.000240442 0.000351555 0.000241239 0.000349585 0.000351555 0.000447149 0.000349585 0.000447121 0.000241239 0.000349585 0.000233863 0.000342594 0.000349585 0.000447121 0.000342594 0.000436138 0.000233863 0.000342594 0.000226487 0.00032721 0.000342594 0.000436138 0.00032721 0.000425156 0.000582756 0.000588955 0.000600906 0.000610327 0.000588955 0.000595154 0.000610327 0.000599275 0.000600906 0.000610327 0.000621634 0.000624232 0.000610327 0.000599275 0.000624232 0.000605883 0.000595154 0.000578501 0.000599275 0.000570913 0.000578501 0.000546173 0.000570913 0.000523735 0.000599275 0.000570913 0.000605883 0.000566576 0.000570913 0.000523735 0.000566576 0.000501296 0.000621634 0.000624232 0.000636551 0.000637068 0.000624232 0.000605883 0.000637068 0.000610441 0.000636551 0.000637068 0.000657449 0.000644151 0.000637068 0.000610441 0.000644151 0.000630853 0.000275484 0.000344394 0.000405074 0.000502771 0.000344394 0.000413304 0.000502771 0.000616154 0.000405074 0.000502771 0.000534663 0.000656866 0.000502771 0.000616154 0.000656866 0.000803662 0.000605883 0.000566576 0.000610441 0.000564226 0.000566576 0.000501296 0.000564226 0.000497988 0.000610441 0.000564226 0.000630853 0.000562766 0.000564226 0.000497988 0.000562766 0.000494679 0.000226487 0.00032721 0.000208176 0.000306427 0.00032721 0.000425156 0.000306427 0.000395953 0.000208176 0.000306427 0.000189865 0.000278307 0.000306427 0.000395953 0.000278307 0.00036675 0.000122318 0.000151944 0.00018285 0.000221723 0.000151944 0.00018157 0.000221723 0.000268033 0.00018285 0.000221723 0.000243382 0.00029208 0.000221723 0.000268033 0.00029208 0.000354497 0.000198001 0.000285657 0.000210566 0.000307388 0.000285657 0.000373312 0.000307388 0.000394788 0.000210566 0.000307388 0.000223131 0.000320033 0.000307388 0.000394788 0.000320033 0.000416935 0.00140777 0.00141416 0.0013181 0.0012582 0.00141416 0.00142055 0.0012582 0.00133337 0.0013181 0.0012582 0.00122842 0.00123731 0.0012582 0.00133337 0.00123731 0.0012462 0.00138832 0.00130837 0.00139657 0.00124839 0.00130837 0.00122842 0.00124839 0.00123535 0.00139657 0.00124839 0.00140481 0.00132354 0.00124839 0.00123535 0.00132354 0.00124227 0.00179841 0.00206958 0.00144843 0.00166222 0.00124484 0.00144843 0.000882252 0.00101652 0.00134204 0.000691467 0.00148568 0.000763638 0.000691467 0 0.000763638 0 0.00148568 0.000763638 0.0015762 0.00081125 0.000763638 0 0.00081125 0 0.00166222 0.00187313 0.00116413 0.00130933 0.00187313 0.00206692 0.00130933 0.00144721 0.00144721 0.00155415 0.000744902 0.000800182 0.00155415 0.00162166 0.000800182 0.000835299 0.000744902 0.000800182 0 0 0.000800182 0.000835299 0 0 0.00130671 0.00117678 0.00150451 0.0013701 0.00117678 0.00104684 0.0013701 0.00120469 0.00150451 0.0013701 0.00170241 0.0015497 0.0013701 0.00120469 0.0015497 0.00136312 0.000181341 0 0.000140793 0 0.000140793 0 9.33076e-05 0 0.00018149 0.00014085 0 0 0.00014085 9.33205e-05 0 0 9.33076e-05 0 4.77819e-05 0 9.33205e-05 4.77819e-05 0 0 4.77819e-05 0 0 0 0.00104684 0.000888569 0.00120469 0.00103482 0.000888569 0.000730298 0.00103482 0.00084251 0.00120469 0.00103482 0.00136312 0.00117122 0.00103482 0.00084251 0.00117122 0.000954722 0.00263681 0.00258115 0.00284439 0.00278576 0.00195321 0.00202838 0.00216801 0.00225611 0.00202838 0.00209485 0.00225611 0.00232295 0.00216801 0.00225611 0.00236898 0.00246449 0.00225611 0.00232295 0.00246449 0.00253919 0.00258115 0.00249347 0.00278576 0.0026973 0.00249347 0.00238669 0.0026973 0.002574 0.00238669 0.00224077 0.002574 0.002425 0.00224077 0.00207804 0.002425 0.00224132 0.0031151 0.00323481 0.00319203 0.00331718 0.00336825 0.00339211 0.0034816 0.00351388 0.00339211 0.00339335 0.00351388 0.00350565 0.0034816 0.00351388 0.00357322 0.00359674 0.00364359 0.00361164 0.00366923 0.00362925 0.00361164 0.00353414 0.00362925 0.00355044 0.00366312 0.00366923 0.00364109 0.00364349 0.00362925 0.00355044 0.00361462 0.00352917 0.00209485 0.00213693 0.00232295 0.00238443 0.00213693 0.00217901 0.00238443 0.0024171 0.00232295 0.00238443 0.00253919 0.00260529 0.00238443 0.0024171 0.00260529 0.00264243 0.00207804 0.00188023 0.00224132 0.00203403 0.00188023 0.00166039 0.00203403 0.00179612 0.00236898 0.00246449 0.00256033 0.00266431 0.00246449 0.00253919 0.00266431 0.00274516 0.00256033 0.00266431 0.00272739 0.00283826 0.00266431 0.00274516 0.00283826 0.00292534 0.00253919 0.00260529 0.00274516 0.00281677 0.00260529 0.00264243 0.00281677 0.00285699 0.00274516 0.00281677 0.00292534 0.00300379 0.00281677 0.00285699 0.00300379 0.00304597 0.00273282 0.00287607 0.00282816 0.00297722 0.00287607 0.0030086 0.00297722 0.0031151 0.00282816 0.00297722 0.00288966 0.00304735 0.00297722 0.0031151 0.00304735 0.00319203 0.000443234 0.000398974 0.000658972 0.000600798 0.000398974 0.000354715 0.000600798 0.000530023 0.000658972 0.000600798 0.000881151 0.00079324 0.000600798 0.000530023 0.00079324 0.00070533 0.00248122 0.00260826 0.00260702 0.00275786 0.00260826 0.00272739 0.00275786 0.00288258 0.00260702 0.00275786 0.00273282 0.00287607 0.00275786 0.00288258 0.00287607 0.0030086 0.00292935 0.00307922 0.00287012 0.00302831 0.00307922 0.00322485 0.00302831 0.0031679 0.00285308 0.00258068 0.00286491 0.00259607 0.00192263 0.0015762 0.00195495 0.00159643 0.00228263 0.00195495 0.00229223 0.00196887 0.00229223 0.00196887 0.00228138 0.00195986 0.00319203 0.00331718 0.0032363 0.00336477 0.00331718 0.00342661 0.00336477 0.00347398 0.0032363 0.00336477 0.00324607 0.00337713 0.00336477 0.00347398 0.00337713 0.00349043 0.00342661 0.00350823 0.00347398 0.00356125 0.00350823 0.00357322 0.00356125 0.00361882 0.00347398 0.00356125 0.00349043 0.00357475 0.0015762 0.00119373 0.00159643 0.00122259 0.00119373 0.00081125 0.00122259 0.000820322 0.00349043 0.00357475 0.0034658 0.00354911 0.00242407 0.00257844 0.00249553 0.00266998 0.00257844 0.00273282 0.00266998 0.00282816 0.00249553 0.00266998 0.00256698 0.00272553 0.00266998 0.00282816 0.00272553 0.00288966 0.00081125 0.000405625 0.000820322 0.000413888 0.000405625 0 0.000413888 0 0.000820322 0.000413888 0.000828819 0.000413907 0.000413888 0 0.000413907 0 0.000828819 0.000413907 0.000827254 0.000413163 0.000413907 0 0.000413163 0 0.000413163 0 0.000409819 0 0.00287012 0.00302831 0.00278828 0.00293654 0.00302831 0.0031679 0.00293654 0.00307404 0.00278828 0.00293654 0.00266721 0.00281092 0.00293654 0.00307404 0.00281092 0.00294106 0.00272739 0.00283826 0.00288258 0.0029998 0.00283826 0.00292534 0.0029998 0.00309464 0.00288258 0.0029998 0.0030086 0.00313074 0.0029998 0.00309464 0.00313074 0.00322788 0.00259545 0.00235343 0.00245927 0.00223267 0.00235343 0.00208667 0.00223267 0.00197498 0.00266721 0.00281092 0.00251633 0.00264995 0.00251633 0.00264995 0.00233077 0.0024557 0.00166714 0.00167294 0.00192308 0.00194355 0.00167294 0.00167874 0.00194355 0.00193468 0.00192308 0.00194355 0.00217901 0.00219546 0.00194355 0.00193468 0.00219546 0.0021883 0.00233077 0.0024557 0.00211526 0.00222769 0.00211526 0.00222769 0.00187313 0.00197002 0.00222769 0.00233218 0.00197002 0.00206692 0.00167874 0.00165173 0.00193468 0.00192009 0.00165173 0.00162472 0.00192009 0.00187191 0.00193468 0.00192009 0.0021883 0.0021709 0.00192009 0.00187191 0.0021709 0.00211765 0.00162472 0.00156287 0.00187191 0.001818 0.00156287 0.00150101 0.001818 0.00172878 0.00187191 0.001818 0.00211765 0.00205599 0.001818 0.00172878 0.00205599 0.00195601 0.00150101 0.00140386 0.00172878 0.0016339 0.00140386 0.00130671 0.0016339 0.00150451 0.00172878 0.0016339 0.00195601 0.00184804 0.0016339 0.00150451 0.00184804 0.00170241 0.000954722 0.000723447 0.0010606 0.000810389 0.000723447 0.000492172 0.000810389 0.000544444 0.0010606 0.000810389 0.00115875 0.000886028 0.000810389 0.000544444 0.000886028 0.000596715 0.00357322 0.00359674 0.00361882 0.00364994 0.000409819 0 0.00039702 0 0.00039702 0 0.000380978 0 0.00115875 0.000886028 0.00125261 0.000959818 0.000886028 0.000596715 0.000959818 0.000644091 0.00125261 0.000959818 0.00134204 0.00101675 0.000959818 0.000644091 0.00101675 0.000691467 0.00192847 0.00209546 0.00190592 0.00207788 0.00209546 0.00226246 0.00207788 0.00224764 0.00190592 0.00207788 0.00188338 0.00204372 0.00207788 0.00224764 0.00204372 0.00220649 0.000380978 0 0.000361536 0 0.000361536 0 0.000323635 0 0.00233321 0.00232997 0.00199766 0.00200317 0.00197934 0.00199766 0.00162166 0.00163301 0.00232997 0.00231025 0.00200317 0.00198596 0.00226246 0.00243587 0.00224764 0.00241738 0.00243587 0.00260928 0.00241738 0.00259494 0.00260325 0.00246253 0.00236309 0.00223807 0.00236309 0.00223807 0.00209696 0.00198141 0.00162166 0.00163301 0.00122848 0.00125077 0.00122848 0.00125077 0.000835299 0.000839447 0.000835299 0.000839447 0.00041765 0.000423591 0.000839447 0.000843994 0.000423591 0.000421616 0.00041765 0.000423591 0 0 0.000423591 0.000421616 0 0 0.000843994 0.000839148 0.000421616 0.000419229 0.000421616 0.000419229 0 0 0.000419229 0.000414416 0 0 0.000414416 0.000400853 0 0 0.000400853 0.000383465 0 0 0.000383465 0.000363452 0 0 0.000363452 0.000324914 0 0 0.00116413 0.00123673 0.000882141 0.000945314 0.00123673 0.00130933 0.000945314 0.00100012 0.000882141 0.000945314 0.000600157 0.000636787 0.000945314 0.00100012 0.000636787 0.000673417 0.00130933 0.00137827 0.00100012 0.00105435 0.00137827 0.00144721 0.00105435 0.00109606 0.00100012 0.00105435 0.000673417 0.000707309 0.00105435 0.00109606 0.000707309 0.000744902 0.000673417 0.000707309 0.000336708 0.000358656 0.000707309 0.000744902 0.000358656 0.000372451 0.000336708 0.000358656 0 0 0.000358656 0.000372451 0 0 0.000893954 0.000989075 0.00091697 0.00100426 0.000989075 0.0010842 0.00100426 0.00111083 0.00091697 0.00100426 0.000924637 0.00102009 0.00100426 0.00111083 0.00102009 0.00111555 0.0010842 0.0012003 0.00111083 0.00121627 0.0012003 0.00131641 0.00121627 0.00134143 0.00111083 0.00121627 0.00111555 0.0012314 0.00121627 0.00134143 0.0012314 0.00134726 0.00112303 0.00123393 0.00118179 0.00130398 0.00123393 0.00135769 0.00130398 0.00143404 0.00118179 0.00130398 0.00124055 0.00135901 0.00130398 0.00143404 0.00135901 0.00149533 0.00135769 0.00148332 0.00143404 0.00156787 0.00148332 0.00162204 0.00156787 0.00171354 0.00143404 0.00156787 0.00149533 0.00163356 0.00156787 0.00171354 0.00163356 0.00178694 0.00124055 0.00135901 0.00127848 0.00141011 0.00135901 0.00149533 0.00141011 0.00154944 0.00127848 0.00141011 0.00131641 0.00144258 0.00141011 0.00154944 0.00144258 0.00158527 0.00149533 0.00163356 0.00154944 0.00169364 0.00163356 0.00178694 0.00169364 0.00184067 0.00154944 0.00169364 0.00158527 0.00172981 0.00169364 0.00184067 0.00172981 0.00189439 0.00162204 0.0017634 0.00171354 0.00185965 0.0017634 0.00190476 0.00185965 0.00201389 0.00171354 0.00185965 0.00178694 0.00194303 0.00185965 0.00201389 0.00194303 0.00209912 0.00190476 0.00205246 0.00201389 0.00216649 0.00205246 0.00220016 0.00216649 0.00231211 0.00201389 0.00216649 0.00209912 0.00226159 0.00216649 0.00231211 0.00226159 0.00242407 0.00131641 0.00144258 0.00134143 0.00146855 0.00144258 0.00158527 0.00146855 0.00161264 0.00134143 0.00146855 0.00134726 0.00147271 0.00146855 0.00161264 0.00147271 0.00161786 0.00158527 0.00172981 0.00161264 0.00176037 0.00172981 0.00189439 0.00176037 0.00191143 0.00161264 0.00176037 0.00161786 0.00177316 0.00176037 0.00191143 0.00177316 0.00192847 0.00134726 0.00147271 0.00133778 0.00147191 0.00147271 0.00161786 0.00147191 0.00160221 0.00133778 0.00147191 0.00132831 0.00144526 0.00147191 0.00160221 0.00144526 0.00158655 0.00132831 0.00144526 0.00129058 0.00141528 0.00144526 0.00158655 0.00141528 0.00154782 0.00129058 0.00141528 0.00125285 0.00135815 0.001