# vtk DataFile Version 3.0
#This file was generated by the deal.II library on 2021/4/23 at 0:45:38
ASCII
DATASET UNSTRUCTURED_GRID

FIELD FieldData 2
CYCLE 1 1 int
5
TIME 1 1 double
0.01
POINTS 240 double
-1 -1 0
-0.75 -1 0
-1 -0.75 0
-0.75 -0.75 0
-0.75 -1 0
-0.5 -1 0
-0.75 -0.75 0
-0.5 -0.75 0
-1 -0.75 0
-0.75 -0.75 0
-1 -0.5 0
-0.75 -0.5 0
-0.75 -0.75 0
-0.5 -0.75 0
-0.75 -0.5 0
-0.5 -0.5 0
-0.5 -1 0
-0.25 -1 0
-0.5 -0.75 0
-0.25 -0.75 0
-0.25 -1 0
0 -1 0
-0.25 -0.75 0
0 -0.75 0
-0.5 -0.75 0
-0.25 -0.75 0
-0.5 -0.5 0
-0.25 -0.5 0
-0.25 -0.75 0
0 -0.75 0
-0.25 -0.5 0
0 -0.5 0
-1 -0.5 0
-0.75 -0.5 0
-1 -0.25 0
-0.75 -0.25 0
-0.75 -0.5 0
-0.5 -0.5 0
-0.75 -0.25 0
-0.5 -0.25 0
-1 -0.25 0
-0.75 -0.25 0
-1 0 0
-0.75 0 0
-0.75 -0.25 0
-0.5 -0.25 0
-0.75 0 0
-0.5 0 0
-0.5 -0.5 0
-0.25 -0.5 0
-0.5 -0.25 0
-0.25 -0.25 0
-0.25 -0.5 0
0 -0.5 0
-0.25 -0.25 0
0 -0.25 0
-0.5 -0.25 0
-0.25 -0.25 0
-0.5 0 0
-0.25 0 0
-0.25 -0.25 0
0 -0.25 0
-0.25 0 0
0 0 0
0 -1 0
0.25 -1 0
0 -0.75 0
0.25 -0.75 0
0.25 -1 0
0.5 -1 0
0.25 -0.75 0
0.5 -0.75 0
0 -0.75 0
0.25 -0.75 0
0 -0.5 0
0.25 -0.5 0
0.25 -0.75 0
0.5 -0.75 0
0.25 -0.5 0
0.5 -0.5 0
0.5 -1 0
0.75 -1 0
0.5 -0.75 0
0.75 -0.75 0
0.75 -1 0
1 -1 0
0.75 -0.75 0
1 -0.75 0
0.5 -0.75 0
0.75 -0.75 0
0.5 -0.5 0
0.75 -0.5 0
0.75 -0.75 0
1 -0.75 0
0.75 -0.5 0
1 -0.5 0
0 -0.5 0
0.25 -0.5 0
0 -0.25 0
0.25 -0.25 0
0.25 -0.5 0
0.5 -0.5 0
0.25 -0.25 0
0.5 -0.25 0
0 -0.25 0
0.25 -0.25 0
0 0 0
0.25 0 0
0.25 -0.25 0
0.5 -0.25 0
0.25 0 0
0.5 0 0
-1 0 0
-0.75 0 0
-1 0.25 0
-0.75 0.25 0
-0.75 0 0
-0.5 0 0
-0.75 0.25 0
-0.5 0.25 0
-1 0.25 0
-0.75 0.25 0
-1 0.5 0
-0.75 0.5 0
-0.75 0.25 0
-0.5 0.25 0
-0.75 0.5 0
-0.5 0.5 0
-0.5 0 0
-0.25 0 0
-0.5 0.25 0
-0.25 0.25 0
-0.25 0 0
0 0 0
-0.25 0.25 0
0 0.25 0
-0.5 0.25 0
-0.25 0.25 0
-0.5 0.5 0
-0.25 0.5 0
-0.25 0.25 0
0 0.25 0
-0.25 0.5 0
0 0.5 0
-1 0.5 0
-0.75 0.5 0
-1 0.75 0
-0.75 0.75 0
-0.75 0.5 0
-0.5 0.5 0
-0.75 0.75 0
-0.5 0.75 0
-1 0.75 0
-0.75 0.75 0
-1 1 0
-0.75 1 0
-0.75 0.75 0
-0.5 0.75 0
-0.75 1 0
-0.5 1 0
-0.5 0.5 0
-0.25 0.5 0
-0.5 0.75 0
-0.25 0.75 0
-0.25 0.5 0
0 0.5 0
-0.25 0.75 0
0 0.75 0
-0.5 0.75 0
-0.25 0.75 0
-0.5 1 0
-0.25 1 0
-0.25 0.75 0
0 0.75 0
-0.25 1 0
0 1 0
0.5 -0.5 0
0.625 -0.5 0
0.5 -0.375 0
0.625 -0.375 0
0.625 -0.5 0
0.75 -0.5 0
0.625 -0.375 0
0.75 -0.375 0
0.5 -0.375 0
0.625 -0.375 0
0.5 -0.25 0
0.625 -0.25 0
0.625 -0.375 0
0.75 -0.375 0
0.625 -0.25 0
0.75 -0.25 0
0.75 -0.5 0
0.875 -0.5 0
0.75 -0.375 0
0.875 -0.375 0
0.875 -0.5 0
1 -0.5 0
0.875 -0.375 0
1 -0.375 0
0.75 -0.375 0
0.875 -0.375 0
0.75 -0.25 0
0.875 -0.25 0
0.875 -0.375 0
1 -0.375 0
0.875 -0.25 0
1 -0.25 0
0.5 -0.25 0
0.625 -0.25 0
0.5 -0.125 0
0.625 -0.125 0
0.625 -0.25 0
0.75 -0.25 0
0.625 -0.125 0
0.75 -0.125 0
0.5 -0.125 0
0.625 -0.125 0
0.5 0 0
0.625 0 0
0.625 -0.125 0
0.75 -0.125 0
0.625 0 0
0.75 0 0
0.75 -0.25 0
0.875 -0.25 0
0.75 -0.125 0
0.875 -0.125 0
0.875 -0.25 0
1 -0.25 0
0.875 -0.125 0
1 -0.125 0
0.75 -0.125 0
0.875 -0.125 0
0.75 0 0
0.875 0 0
0.875 -0.125 0
1 -0.125 0
0.875 0 0
1 0 0

CELLS 60 300
4	0	1	3	2
4	4	5	7	6
4	8	9	11	10
4	12	13	15	14
4	16	17	19	18
4	20	21	23	22
4	24	25	27	26
4	28	29	31	30
4	32	33	35	34
4	36	37	39	38
4	40	41	43	42
4	44	45	47	46
4	48	49	51	50
4	52	53	55	54
4	56	57	59	58
4	60	61	63	62
4	64	65	67	66
4	68	69	71	70
4	72	73	75	74
4	76	77	79	78
4	80	81	83	82
4	84	85	87	86
4	88	89	91	90
4	92	93	95	94
4	96	97	99	98
4	100	101	103	102
4	104	105	107	106
4	108	109	111	110
4	112	113	115	114
4	116	117	119	118
4	120	121	123	122
4	124	125	127	126
4	128	129	131	130
4	132	133	135	134
4	136	137	139	138
4	140	141	143	142
4	144	145	147	146
4	148	149	151	150
4	152	153	155	154
4	156	157	159	158
4	160	161	163	162
4	164	165	167	166
4	168	169	171	170
4	172	173	175	174
4	176	177	179	178
4	180	181	183	182
4	184	185	187	186
4	188	189	191	190
4	192	193	195	194
4	196	197	199	198
4	200	201	203	202
4	204	205	207	206
4	208	209	211	210
4	212	213	215	214
4	216	217	219	218
4	220	221	223	222
4	224	225	227	226
4	228	229	231	230
4	232	233	235	234
4	236	237	239	238

CELL_TYPES 60
 9 9 9 9 9 9 9 9 9 9 9 9 9 9 9 9 9 9 9 9 9 9 9 9 9 9 9 9 9 9 9 9 9 9 9 9 9 9 9 9 9 9 9 9 9 9 9 9 9 9 9 9 9 9 9 9 9 9 9 9
POINT_DATA 240
SCALARS U double 1
LOOKUP_TABLE default
0 0 0 -1.22744e-08 0 0 -1.22744e-08 -3.00669e-08 0 -1.22744e-08 0 3.50619e-07 -1.22744e-08 -3.00669e-08 3.50619e-07 -1.13601e-06 0 0 -3.00669e-08 6.40994e-07 0 0 6.40994e-07 -5.48546e-06 -3.00669e-08 6.40994e-07 -1.13601e-06 1.26812e-06 6.40994e-07 -5.48546e-06 1.26812e-06 1.87526e-05 0 3.50619e-07 0 5.71598e-07 3.50619e-07 -1.13601e-06 5.71598e-07 -1.45937e-06 0 5.71598e-07 0 1.28327e-07 5.71598e-07 -1.45937e-06 1.28327e-07 -5.27004e-07 -1.13601e-06 1.26812e-06 -1.45937e-06 -1.95446e-06 1.26812e-06 1.87526e-05 -1.95446e-06 6.03529e-05 -1.45937e-06 -1.95446e-06 -5.27004e-07 1.4982e-06 -1.95446e-06 6.03529e-05 1.4982e-06 0 0 0 -5.48546e-06 3.73451e-05 0 0 3.73451e-05 -0.000228297 -5.48546e-06 3.73451e-05 1.87526e-05 -0.000227035 3.73451e-05 -0.000228297 -0.000227035 0.00182092 0 0 -0.000228297 -0.000569841 0 0 -0.000569841 0 -0.000228297 -0.000569841 0.00182092 0.00421027 -0.000569841 0 0.00421027 0 1.87526e-05 -0.000227035 6.03529e-05 -0.000571352 -0.000227035 0.00182092 -0.000571352 0.00420769 6.03529e-05 -0.000571352 0 0 -0.000571352 0.00420769 0 0 0 1.28327e-07 0 -2.58764e-08 1.28327e-07 -5.27004e-07 -2.58764e-08 9.94306e-08 0 -2.58764e-08 0 5.10014e-09 -2.58764e-08 9.94306e-08 5.10014e-09 -1.82122e-08 -5.27004e-07 1.4982e-06 9.94306e-08 -2.65898e-07 1.4982e-06 0 -2.65898e-07 0 9.94306e-08 -2.65898e-07 -1.82122e-08 4.5213e-08 -2.65898e-07 0 4.5213e-08 0 0 5.10014e-09 0 -9.5396e-10 5.10014e-09 -1.82122e-08 -9.5396e-10 3.12851e-09 0 -9.5396e-10 0 0 -9.5396e-10 3.12851e-09 0 0 -1.82122e-08 4.5213e-08 3.12851e-09 -7.08948e-09 4.5213e-08 0 -7.08948e-09 0 3.12851e-09 -7.08948e-09 0 0 -7.08948e-09 0 0 0 0.00182092 0.00301559 0.0030143 0.00711878 0.00301559 0.00421027 0.00711878 0.00750898 0.0030143 0.00711878 0.00420769 0.00750974 0.00711878 0.00750898 0.00750974 0.00829395 0.00421027 0.00210513 0.00750898 0.0067605 0.00210513 0 0.0067605 0 0.00750898 0.0067605 0.00829395 0.00721352 0.0067605 0 0.00721352 0 0.00420769 0.00750974 0.00210385 0.00676101 0.00750974 0.00829395 0.00676101 0.0072136 0.00210385 0.00676101 0 0 0.00676101 0.0072136 0 0 0.00829395 0.00721352 0.0072136 0.00651105 0.00721352 0 0.00651105 0 0.0072136 0.00651105 0 0 0.00651105 0 0 0 
