# vtk DataFile Version 3.0
#This file was generated by the deal.II library on 2021/4/23 at 0:45:38
ASCII
DATASET UNSTRUCTURED_GRID

FIELD FieldData 2
CYCLE 1 1 int
3
TIME 1 1 double
0.006
POINTS 240 double
-1 -1 0
-0.75 -1 0
-1 -0.75 0
-0.75 -0.75 0
-0.75 -1 0
-0.5 -1 0
-0.75 -0.75 0
-0.5 -0.75 0
-1 -0.75 0
-0.75 -0.75 0
-1 -0.5 0
-0.75 -0.5 0
-0.75 -0.75 0
-0.5 -0.75 0
-0.75 -0.5 0
-0.5 -0.5 0
-0.5 -1 0
-0.25 -1 0
-0.5 -0.75 0
-0.25 -0.75 0
-0.25 -1 0
0 -1 0
-0.25 -0.75 0
0 -0.75 0
-0.5 -0.75 0
-0.25 -0.75 0
-0.5 -0.5 0
-0.25 -0.5 0
-0.25 -0.75 0
0 -0.75 0
-0.25 -0.5 0
0 -0.5 0
-1 -0.5 0
-0.75 -0.5 0
-1 -0.25 0
-0.75 -0.25 0
-0.75 -0.5 0
-0.5 -0.5 0
-0.75 -0.25 0
-0.5 -0.25 0
-1 -0.25 0
-0.75 -0.25 0
-1 0 0
-0.75 0 0
-0.75 -0.25 0
-0.5 -0.25 0
-0.75 0 0
-0.5 0 0
-0.5 -0.5 0
-0.25 -0.5 0
-0.5 -0.25 0
-0.25 -0.25 0
-0.25 -0.5 0
0 -0.5 0
-0.25 -0.25 0
0 -0.25 0
-0.5 -0.25 0
-0.25 -0.25 0
-0.5 0 0
-0.25 0 0
-0.25 -0.25 0
0 -0.25 0
-0.25 0 0
0 0 0
0 -1 0
0.25 -1 0
0 -0.75 0
0.25 -0.75 0
0.25 -1 0
0.5 -1 0
0.25 -0.75 0
0.5 -0.75 0
0 -0.75 0
0.25 -0.75 0
0 -0.5 0
0.25 -0.5 0
0.25 -0.75 0
0.5 -0.75 0
0.25 -0.5 0
0.5 -0.5 0
0.5 -1 0
0.75 -1 0
0.5 -0.75 0
0.75 -0.75 0
0.75 -1 0
1 -1 0
0.75 -0.75 0
1 -0.75 0
0.5 -0.75 0
0.75 -0.75 0
0.5 -0.5 0
0.75 -0.5 0
0.75 -0.75 0
1 -0.75 0
0.75 -0.5 0
1 -0.5 0
0 -0.5 0
0.25 -0.5 0
0 -0.25 0
0.25 -0.25 0
0.25 -0.5 0
0.5 -0.5 0
0.25 -0.25 0
0.5 -0.25 0
0 -0.25 0
0.25 -0.25 0
0 0 0
0.25 0 0
0.25 -0.25 0
0.5 -0.25 0
0.25 0 0
0.5 0 0
-1 0 0
-0.75 0 0
-1 0.25 0
-0.75 0.25 0
-0.75 0 0
-0.5 0 0
-0.75 0.25 0
-0.5 0.25 0
-1 0.25 0
-0.75 0.25 0
-1 0.5 0
-0.75 0.5 0
-0.75 0.25 0
-0.5 0.25 0
-0.75 0.5 0
-0.5 0.5 0
-0.5 0 0
-0.25 0 0
-0.5 0.25 0
-0.25 0.25 0
-0.25 0 0
0 0 0
-0.25 0.25 0
0 0.25 0
-0.5 0.25 0
-0.25 0.25 0
-0.5 0.5 0
-0.25 0.5 0
-0.25 0.25 0
0 0.25 0
-0.25 0.5 0
0 0.5 0
-1 0.5 0
-0.75 0.5 0
-1 0.75 0
-0.75 0.75 0
-0.75 0.5 0
-0.5 0.5 0
-0.75 0.75 0
-0.5 0.75 0
-1 0.75 0
-0.75 0.75 0
-1 1 0
-0.75 1 0
-0.75 0.75 0
-0.5 0.75 0
-0.75 1 0
-0.5 1 0
-0.5 0.5 0
-0.25 0.5 0
-0.5 0.75 0
-0.25 0.75 0
-0.25 0.5 0
0 0.5 0
-0.25 0.75 0
0 0.75 0
-0.5 0.75 0
-0.25 0.75 0
-0.5 1 0
-0.25 1 0
-0.25 0.75 0
0 0.75 0
-0.25 1 0
0 1 0
0.5 -0.5 0
0.625 -0.5 0
0.5 -0.375 0
0.625 -0.375 0
0.625 -0.5 0
0.75 -0.5 0
0.625 -0.375 0
0.75 -0.375 0
0.5 -0.375 0
0.625 -0.375 0
0.5 -0.25 0
0.625 -0.25 0
0.625 -0.375 0
0.75 -0.375 0
0.625 -0.25 0
0.75 -0.25 0
0.75 -0.5 0
0.875 -0.5 0
0.75 -0.375 0
0.875 -0.375 0
0.875 -0.5 0
1 -0.5 0
0.875 -0.375 0
1 -0.375 0
0.75 -0.375 0
0.875 -0.375 0
0.75 -0.25 0
0.875 -0.25 0
0.875 -0.375 0
1 -0.375 0
0.875 -0.25 0
1 -0.25 0
0.5 -0.25 0
0.625 -0.25 0
0.5 -0.125 0
0.625 -0.125 0
0.625 -0.25 0
0.75 -0.25 0
0.625 -0.125 0
0.75 -0.125 0
0.5 -0.125 0
0.625 -0.125 0
0.5 0 0
0.625 0 0
0.625 -0.125 0
0.75 -0.125 0
0.625 0 0
0.75 0 0
0.75 -0.25 0
0.875 -0.25 0
0.75 -0.125 0
0.875 -0.125 0
0.875 -0.25 0
1 -0.25 0
0.875 -0.125 0
1 -0.125 0
0.75 -0.125 0
0.875 -0.125 0
0.75 0 0
0.875 0 0
0.875 -0.125 0
1 -0.125 0
0.875 0 0
1 0 0

CELLS 60 300
4	0	1	3	2
4	4	5	7	6
4	8	9	11	10
4	12	13	15	14
4	16	17	19	18
4	20	21	23	22
4	24	25	27	26
4	28	29	31	30
4	32	33	35	34
4	36	37	39	38
4	40	41	43	42
4	44	45	47	46
4	48	49	51	50
4	52	53	55	54
4	56	57	59	58
4	60	61	63	62
4	64	65	67	66
4	68	69	71	70
4	72	73	75	74
4	76	77	79	78
4	80	81	83	82
4	84	85	87	86
4	88	89	91	90
4	92	93	95	94
4	96	97	99	98
4	100	101	103	102
4	104	105	107	106
4	108	109	111	110
4	112	113	115	114
4	116	117	119	118
4	120	121	123	122
4	124	125	127	126
4	128	129	131	130
4	132	133	135	134
4	136	137	139	138
4	140	141	143	142
4	144	145	147	146
4	148	149	151	150
4	152	153	155	154
4	156	157	159	158
4	160	161	163	162
4	164	165	167	166
4	168	169	171	170
4	172	173	175	174
4	176	177	179	178
4	180	181	183	182
4	184	185	187	186
4	188	189	191	190
4	192	193	195	194
4	196	197	199	198
4	200	201	203	202
4	204	205	207	206
4	208	209	211	210
4	212	213	215	214
4	216	217	219	218
4	220	221	223	222
4	224	225	227	226
4	228	229	231	230
4	232	233	235	234
4	236	237	239	238

CELL_TYPES 60
 9 9 9 9 9 9 9 9 9 9 9 9 9 9 9 9 9 9 9 9 9 9 9 9 9 9 9 9 9 9 9 9 9 9 9 9 9 9 9 9 9 9 9 9 9 9 9 9 9 9 9 9 9 9 9 9 9 9 9 9
POINT_DATA 240
SCALARS U double 1
LOOKUP_TABLE default
0 0 0 3.12191e-08 0 0 3.12191e-08 -1.96739e-07 0 3.12191e-08 0 -9.18925e-08 3.12191e-08 -1.96739e-07 -9.18925e-08 7.42981e-07 0 0 -1.96739e-07 1.11047e-06 0 0 1.11047e-06 -5.91036e-06 -1.96739e-07 1.11047e-06 7.42981e-07 -4.83156e-06 1.11047e-06 -5.91036e-06 -4.83156e-06 2.82379e-05 0 -9.18925e-08 0 -3.48627e-07 -9.18925e-08 7.42981e-07 -3.48627e-07 2.35101e-06 0 -3.48627e-07 0 4.46901e-08 -3.48627e-07 2.35101e-06 4.46901e-08 -1.49232e-07 7.42981e-07 -4.83156e-06 2.35101e-06 -1.39147e-05 -4.83156e-06 2.82379e-05 -1.39147e-05 7.68263e-05 2.35101e-06 -1.39147e-05 -1.49232e-07 3.4821e-07 -1.39147e-05 7.68263e-05 3.4821e-07 0 0 0 -5.91036e-06 3.02079e-05 0 0 3.02079e-05 -0.00015033 -5.91036e-06 3.02079e-05 2.82379e-05 -0.000154976 3.02079e-05 -0.00015033 -0.000154976 0.000818494 0 0 -0.00015033 -0.00039371 0 0 -0.00039371 0 -0.00015033 -0.00039371 0.000818494 0.00209439 -0.00039371 0 0.00209439 0 2.82379e-05 -0.000154976 7.68263e-05 -0.000407593 -0.000154976 0.000818494 -0.000407593 0.00209705 7.68263e-05 -0.000407593 0 0 -0.000407593 0.00209705 0 0 0 4.46901e-08 0 -1.00664e-08 4.46901e-08 -1.49232e-07 -1.00664e-08 3.29519e-08 0 -1.00664e-08 0 2.25525e-09 -1.00664e-08 3.29519e-08 2.25525e-09 -7.23981e-09 -1.49232e-07 3.4821e-07 3.29519e-08 -7.52077e-08 3.4821e-07 0 -7.52077e-08 0 3.29519e-08 -7.52077e-08 -7.23981e-09 1.61544e-08 -7.52077e-08 0 1.61544e-08 0 0 2.25525e-09 0 -4.83093e-10 2.25525e-09 -7.23981e-09 -4.83093e-10 1.51753e-09 0 -4.83093e-10 0 0 -4.83093e-10 1.51753e-09 0 0 -7.23981e-09 1.61544e-08 1.51753e-09 -3.31201e-09 1.61544e-08 0 -3.31201e-09 0 1.51753e-09 -3.31201e-09 0 0 -3.31201e-09 0 0 0 0.000818494 0.00145644 0.00145777 0.00414195 0.00145644 0.00209439 0.00414195 0.0040409 0.00145777 0.00414195 0.00209705 0.00404129 0.00414195 0.0040409 0.00404129 0.00416063 0.00209439 0.00104719 0.0040409 0.00421477 0.00104719 0 0.00421477 0 0.0040409 0.00421477 0.00416063 0.0041471 0.00421477 0 0.0041471 0 0.00209705 0.00404129 0.00104852 0.00421498 0.00404129 0.00416063 0.00421498 0.00414698 0.00104852 0.00421498 0 0 0.00421498 0.00414698 0 0 0.00416063 0.0041471 0.00414698 0.00424374 0.0041471 0 0.00424374 0 0.00414698 0.00424374 0 0 0.00424374 0 0 0 
