# vtk DataFile Version 3.0
#This file was generated by the deal.II library on 2021/4/23 at 0:45:41
ASCII
DATASET UNSTRUCTURED_GRID

FIELD FieldData 2
CYCLE 1 1 int
61
TIME 1 1 double
0.122
POINTS 1824 double
-1 -1 0
-0.75 -1 0
-1 -0.75 0
-0.75 -0.75 0
-0.75 -1 0
-0.5 -1 0
-0.75 -0.75 0
-0.5 -0.75 0
-1 -0.75 0
-0.75 -0.75 0
-1 -0.5 0
-0.75 -0.5 0
-0.75 -0.75 0
-0.5 -0.75 0
-0.75 -0.5 0
-0.5 -0.5 0
-0.5 -1 0
-0.25 -1 0
-0.5 -0.75 0
-0.25 -0.75 0
-0.25 -1 0
0 -1 0
-0.25 -0.75 0
0 -0.75 0
-1 -0.5 0
-0.75 -0.5 0
-1 -0.25 0
-0.75 -0.25 0
-0.75 -0.5 0
-0.5 -0.5 0
-0.75 -0.25 0
-0.5 -0.25 0
-1 -0.25 0
-0.75 -0.25 0
-1 0 0
-0.75 0 0
-0.75 -0.25 0
-0.5 -0.25 0
-0.75 0 0
-0.5 0 0
-0.5 -0.25 0
-0.25 -0.25 0
-0.5 0 0
-0.25 0 0
0 -1 0
0.25 -1 0
0 -0.75 0
0.25 -0.75 0
-1 0 0
-0.75 0 0
-1 0.25 0
-0.75 0.25 0
0.875 -0.75 0
1 -0.75 0
0.875 -0.625 0
1 -0.625 0
0.875 -0.625 0
1 -0.625 0
0.875 -0.5 0
1 -0.5 0
0.25 -0.125 0
0.375 -0.125 0
0.25 0 0
0.375 0 0
0.375 -0.125 0
0.5 -0.125 0
0.375 0 0
0.5 0 0
0.25 -0.75 0
0.375 -0.75 0
0.25 -0.625 0
0.375 -0.625 0
0.25 -0.625 0
0.375 -0.625 0
0.25 -0.5 0
0.375 -0.5 0
0.375 -0.625 0
0.5 -0.625 0
0.375 -0.5 0
0.5 -0.5 0
0.5 -1 0
0.625 -1 0
0.5 -0.875 0
0.625 -0.875 0
0.625 -1 0
0.75 -1 0
0.625 -0.875 0
0.75 -0.875 0
0.5 -0.875 0
0.625 -0.875 0
0.5 -0.75 0
0.625 -0.75 0
0.625 -0.875 0
0.75 -0.875 0
0.625 -0.75 0
0.75 -0.75 0
0.75 -1 0
0.875 -1 0
0.75 -0.875 0
0.875 -0.875 0
0.875 -1 0
1 -1 0
0.875 -0.875 0
1 -0.875 0
0.75 -0.875 0
0.875 -0.875 0
0.75 -0.75 0
0.875 -0.75 0
0.875 -0.875 0
1 -0.875 0
0.875 -0.75 0
1 -0.75 0
0 -0.5 0
0.125 -0.5 0
0 -0.375 0
0.125 -0.375 0
0.125 -0.5 0
0.25 -0.5 0
0.125 -0.375 0
0.25 -0.375 0
0 -0.375 0
0.125 -0.375 0
0 -0.25 0
0.125 -0.25 0
0.125 -0.375 0
0.25 -0.375 0
0.125 -0.25 0
0.25 -0.25 0
0 -0.25 0
0.125 -0.25 0
0 -0.125 0
0.125 -0.125 0
0.125 -0.25 0
0.25 -0.25 0
0.125 -0.125 0
0.25 -0.125 0
0.125 -0.125 0
0.25 -0.125 0
0.125 0 0
0.25 0 0
0.25 -1 0
0.375 -1 0
0.25 -0.875 0
0.375 -0.875 0
0.375 -1 0
0.5 -1 0
0.375 -0.875 0
0.5 -0.875 0
0.25 -0.875 0
0.375 -0.875 0
0.25 -0.75 0
0.375 -0.75 0
0.375 -0.875 0
0.5 -0.875 0
0.375 -0.75 0
0.5 -0.75 0
0 -0.75 0
0.125 -0.75 0
0 -0.625 0
0.125 -0.625 0
0.125 -0.75 0
0.25 -0.75 0
0.125 -0.625 0
0.25 -0.625 0
0 -0.625 0
0.125 -0.625 0
0 -0.5 0
0.125 -0.5 0
0.125 -0.625 0
0.25 -0.625 0
0.125 -0.5 0
0.25 -0.5 0
-0.25 -0.5 0
-0.125 -0.5 0
-0.25 -0.375 0
-0.125 -0.375 0
-0.125 -0.5 0
0 -0.5 0
-0.125 -0.375 0
0 -0.375 0
-0.25 -0.375 0
-0.125 -0.375 0
-0.25 -0.25 0
-0.125 -0.25 0
-0.125 -0.375 0
0 -0.375 0
-0.125 -0.25 0
0 -0.25 0
-0.25 -0.25 0
-0.125 -0.25 0
-0.25 -0.125 0
-0.125 -0.125 0
-0.125 -0.25 0
0 -0.25 0
-0.125 -0.125 0
0 -0.125 0
-0.25 -0.125 0
-0.125 -0.125 0
-0.25 0 0
-0.125 0 0
-0.75 0 0
-0.625 0 0
-0.75 0.125 0
-0.625 0.125 0
-0.625 0 0
-0.5 0 0
-0.625 0.125 0
-0.5 0.125 0
-0.75 0.125 0
-0.625 0.125 0
-0.75 0.25 0
-0.625 0.25 0
-0.625 0.125 0
-0.5 0.125 0
-0.625 0.25 0
-0.5 0.25 0
-0.25 -0.75 0
-0.125 -0.75 0
-0.25 -0.625 0
-0.125 -0.625 0
-0.125 -0.75 0
0 -0.75 0
-0.125 -0.625 0
0 -0.625 0
-0.25 -0.625 0
-0.125 -0.625 0
-0.25 -0.5 0
-0.125 -0.5 0
-0.125 -0.625 0
0 -0.625 0
-0.125 -0.5 0
0 -0.5 0
-1 0.25 0
-0.875 0.25 0
-1 0.375 0
-0.875 0.375 0
-0.875 0.25 0
-0.75 0.25 0
-0.875 0.375 0
-0.75 0.375 0
-1 0.375 0
-0.875 0.375 0
-1 0.5 0
-0.875 0.5 0
-0.875 0.375 0
-0.75 0.375 0
-0.875 0.5 0
-0.75 0.5 0
-0.5 -0.75 0
-0.375 -0.75 0
-0.5 -0.625 0
-0.375 -0.625 0
-0.375 -0.75 0
-0.25 -0.75 0
-0.375 -0.625 0
-0.25 -0.625 0
-0.5 -0.625 0
-0.375 -0.625 0
-0.5 -0.5 0
-0.375 -0.5 0
-0.375 -0.625 0
-0.25 -0.625 0
-0.375 -0.5 0
-0.25 -0.5 0
-0.5 -0.5 0
-0.375 -0.5 0
-0.5 -0.375 0
-0.375 -0.375 0
-0.375 -0.5 0
-0.25 -0.5 0
-0.375 -0.375 0
-0.25 -0.375 0
-0.5 -0.375 0
-0.375 -0.375 0
-0.5 -0.25 0
-0.375 -0.25 0
-0.375 -0.375 0
-0.25 -0.375 0
-0.375 -0.25 0
-0.25 -0.25 0
-0.75 0.25 0
-0.625 0.25 0
-0.75 0.375 0
-0.625 0.375 0
-0.625 0.25 0
-0.5 0.25 0
-0.625 0.375 0
-0.5 0.375 0
-0.75 0.375 0
-0.625 0.375 0
-0.75 0.5 0
-0.625 0.5 0
-0.625 0.375 0
-0.5 0.375 0
-0.625 0.5 0
-0.5 0.5 0
-0.25 0 0
-0.125 0 0
-0.25 0.125 0
-0.125 0.125 0
-0.25 0.125 0
-0.125 0.125 0
-0.25 0.25 0
-0.125 0.25 0
-0.125 0.125 0
0 0.125 0
-0.125 0.25 0
0 0.25 0
-1 0.75 0
-0.875 0.75 0
-1 0.875 0
-0.875 0.875 0
-0.875 0.75 0
-0.75 0.75 0
-0.875 0.875 0
-0.75 0.875 0
-1 0.875 0
-0.875 0.875 0
-1 1 0
-0.875 1 0
-0.875 0.875 0
-0.75 0.875 0
-0.875 1 0
-0.75 1 0
-0.5 0 0
-0.375 0 0
-0.5 0.125 0
-0.375 0.125 0
-0.375 0 0
-0.25 0 0
-0.375 0.125 0
-0.25 0.125 0
-0.5 0.125 0
-0.375 0.125 0
-0.5 0.25 0
-0.375 0.25 0
-0.375 0.125 0
-0.25 0.125 0
-0.375 0.25 0
-0.25 0.25 0
-0.125 0.25 0
0 0.25 0
-0.125 0.375 0
0 0.375 0
-0.375 0.25 0
-0.25 0.25 0
-0.375 0.375 0
-0.25 0.375 0
-0.375 0.375 0
-0.25 0.375 0
-0.375 0.5 0
-0.25 0.5 0
-1 0.5 0
-0.875 0.5 0
-1 0.625 0
-0.875 0.625 0
-0.875 0.5 0
-0.75 0.5 0
-0.875 0.625 0
-0.75 0.625 0
-1 0.625 0
-0.875 0.625 0
-1 0.75 0
-0.875 0.75 0
-0.875 0.625 0
-0.75 0.625 0
-0.875 0.75 0
-0.75 0.75 0
-0.75 0.625 0
-0.625 0.625 0
-0.75 0.75 0
-0.625 0.75 0
-0.625 0.625 0
-0.5 0.625 0
-0.625 0.75 0
-0.5 0.75 0
-0.75 0.875 0
-0.625 0.875 0
-0.75 1 0
-0.625 1 0
0.75 -0.5 0
0.8125 -0.5 0
0.75 -0.4375 0
0.8125 -0.4375 0
0.8125 -0.5 0
0.875 -0.5 0
0.8125 -0.4375 0
0.875 -0.4375 0
0.75 -0.4375 0
0.8125 -0.4375 0
0.75 -0.375 0
0.8125 -0.375 0
0.8125 -0.4375 0
0.875 -0.4375 0
0.8125 -0.375 0
0.875 -0.375 0
0.75 -0.375 0
0.8125 -0.375 0
0.75 -0.3125 0
0.8125 -0.3125 0
0.8125 -0.375 0
0.875 -0.375 0
0.8125 -0.3125 0
0.875 -0.3125 0
0.75 -0.3125 0
0.8125 -0.3125 0
0.75 -0.25 0
0.8125 -0.25 0
0.8125 -0.3125 0
0.875 -0.3125 0
0.8125 -0.25 0
0.875 -0.25 0
0.875 -0.375 0
0.9375 -0.375 0
0.875 -0.3125 0
0.9375 -0.3125 0
0.9375 -0.375 0
1 -0.375 0
0.9375 -0.3125 0
1 -0.3125 0
0.875 -0.3125 0
0.9375 -0.3125 0
0.875 -0.25 0
0.9375 -0.25 0
0.9375 -0.3125 0
1 -0.3125 0
0.9375 -0.25 0
1 -0.25 0
0.5 -0.25 0
0.5625 -0.25 0
0.5 -0.1875 0
0.5625 -0.1875 0
0.5625 -0.25 0
0.625 -0.25 0
0.5625 -0.1875 0
0.625 -0.1875 0
0.5 -0.1875 0
0.5625 -0.1875 0
0.5 -0.125 0
0.5625 -0.125 0
0.5625 -0.1875 0
0.625 -0.1875 0
0.5625 -0.125 0
0.625 -0.125 0
0.625 -0.25 0
0.6875 -0.25 0
0.625 -0.1875 0
0.6875 -0.1875 0
0.6875 -0.25 0
0.75 -0.25 0
0.6875 -0.1875 0
0.75 -0.1875 0
0.625 -0.1875 0
0.6875 -0.1875 0
0.625 -0.125 0
0.6875 -0.125 0
0.6875 -0.1875 0
0.75 -0.1875 0
0.6875 -0.125 0
0.75 -0.125 0
0.625 -0.125 0
0.6875 -0.125 0
0.625 -0.0625 0
0.6875 -0.0625 0
0.6875 -0.125 0
0.75 -0.125 0
0.6875 -0.0625 0
0.75 -0.0625 0
0.625 -0.0625 0
0.6875 -0.0625 0
0.625 0 0
0.6875 0 0
0.6875 -0.0625 0
0.75 -0.0625 0
0.6875 0 0
0.75 0 0
0.75 -0.25 0
0.8125 -0.25 0
0.75 -0.1875 0
0.8125 -0.1875 0
0.8125 -0.25 0
0.875 -0.25 0
0.8125 -0.1875 0
0.875 -0.1875 0
0.75 -0.1875 0
0.8125 -0.1875 0
0.75 -0.125 0
0.8125 -0.125 0
0.8125 -0.1875 0
0.875 -0.1875 0
0.8125 -0.125 0
0.875 -0.125 0
0.875 -0.25 0
0.9375 -0.25 0
0.875 -0.1875 0
0.9375 -0.1875 0
0.9375 -0.25 0
1 -0.25 0
0.9375 -0.1875 0
1 -0.1875 0
0.875 -0.1875 0
0.9375 -0.1875 0
0.875 -0.125 0
0.9375 -0.125 0
0.9375 -0.1875 0
1 -0.1875 0
0.9375 -0.125 0
1 -0.125 0
0.75 -0.125 0
0.8125 -0.125 0
0.75 -0.0625 0
0.8125 -0.0625 0
0.8125 -0.125 0
0.875 -0.125 0
0.8125 -0.0625 0
0.875 -0.0625 0
0.75 -0.0625 0
0.8125 -0.0625 0
0.75 0 0
0.8125 0 0
0.8125 -0.0625 0
0.875 -0.0625 0
0.8125 0 0
0.875 0 0
0.5 -0.5 0
0.5625 -0.5 0
0.5 -0.4375 0
0.5625 -0.4375 0
0.5625 -0.5 0
0.625 -0.5 0
0.5625 -0.4375 0
0.625 -0.4375 0
0.5 -0.4375 0
0.5625 -0.4375 0
0.5 -0.375 0
0.5625 -0.375 0
0.5625 -0.4375 0
0.625 -0.4375 0
0.5625 -0.375 0
0.625 -0.375 0
0.625 -0.5 0
0.6875 -0.5 0
0.625 -0.4375 0
0.6875 -0.4375 0
0.6875 -0.5 0
0.75 -0.5 0
0.6875 -0.4375 0
0.75 -0.4375 0
0.625 -0.4375 0
0.6875 -0.4375 0
0.625 -0.375 0
0.6875 -0.375 0
0.6875 -0.4375 0
0.75 -0.4375 0
0.6875 -0.375 0
0.75 -0.375 0
0.5 -0.375 0
0.5625 -0.375 0
0.5 -0.3125 0
0.5625 -0.3125 0
0.5625 -0.375 0
0.625 -0.375 0
0.5625 -0.3125 0
0.625 -0.3125 0
0.5 -0.3125 0
0.5625 -0.3125 0
0.5 -0.25 0
0.5625 -0.25 0
0.5625 -0.3125 0
0.625 -0.3125 0
0.5625 -0.25 0
0.625 -0.25 0
0.625 -0.375 0
0.6875 -0.375 0
0.625 -0.3125 0
0.6875 -0.3125 0
0.6875 -0.375 0
0.75 -0.375 0
0.6875 -0.3125 0
0.75 -0.3125 0
0.625 -0.3125 0
0.6875 -0.3125 0
0.625 -0.25 0
0.6875 -0.25 0
0.6875 -0.3125 0
0.75 -0.3125 0
0.6875 -0.25 0
0.75 -0.25 0
0.875 -0.5 0
0.9375 -0.5 0
0.875 -0.4375 0
0.9375 -0.4375 0
0.9375 -0.5 0
1 -0.5 0
0.9375 -0.4375 0
1 -0.4375 0
0.875 -0.4375 0
0.9375 -0.4375 0
0.875 -0.375 0
0.9375 -0.375 0
0.9375 -0.4375 0
1 -0.4375 0
0.9375 -0.375 0
1 -0.375 0
0.5 -0.125 0
0.5625 -0.125 0
0.5 -0.0625 0
0.5625 -0.0625 0
0.5625 -0.125 0
0.625 -0.125 0
0.5625 -0.0625 0
0.625 -0.0625 0
0.5 -0.0625 0
0.5625 -0.0625 0
0.5 0 0
0.5625 0 0
0.5625 -0.0625 0
0.625 -0.0625 0
0.5625 0 0
0.625 0 0
0.875 -0.125 0
0.9375 -0.125 0
0.875 -0.0625 0
0.9375 -0.0625 0
0.9375 -0.125 0
1 -0.125 0
0.9375 -0.0625 0
1 -0.0625 0
0.875 -0.0625 0
0.9375 -0.0625 0
0.875 0 0
0.9375 0 0
0.9375 -0.0625 0
1 -0.0625 0
0.9375 0 0
1 0 0
0.625 -0.75 0
0.6875 -0.75 0
0.625 -0.6875 0
0.6875 -0.6875 0
0.6875 -0.75 0
0.75 -0.75 0
0.6875 -0.6875 0
0.75 -0.6875 0
0.625 -0.6875 0
0.6875 -0.6875 0
0.625 -0.625 0
0.6875 -0.625 0
0.6875 -0.6875 0
0.75 -0.6875 0
0.6875 -0.625 0
0.75 -0.625 0
0.625 -0.625 0
0.6875 -0.625 0
0.625 -0.5625 0
0.6875 -0.5625 0
0.6875 -0.625 0
0.75 -0.625 0
0.6875 -0.5625 0
0.75 -0.5625 0
0.625 -0.5625 0
0.6875 -0.5625 0
0.625 -0.5 0
0.6875 -0.5 0
0.6875 -0.5625 0
0.75 -0.5625 0
0.6875 -0.5 0
0.75 -0.5 0
0.75 -0.75 0
0.8125 -0.75 0
0.75 -0.6875 0
0.8125 -0.6875 0
0.8125 -0.75 0
0.875 -0.75 0
0.8125 -0.6875 0
0.875 -0.6875 0
0.75 -0.6875 0
0.8125 -0.6875 0
0.75 -0.625 0
0.8125 -0.625 0
0.8125 -0.6875 0
0.875 -0.6875 0
0.8125 -0.625 0
0.875 -0.625 0
0.75 -0.625 0
0.8125 -0.625 0
0.75 -0.5625 0
0.8125 -0.5625 0
0.8125 -0.625 0
0.875 -0.625 0
0.8125 -0.5625 0
0.875 -0.5625 0
0.75 -0.5625 0
0.8125 -0.5625 0
0.75 -0.5 0
0.8125 -0.5 0
0.8125 -0.5625 0
0.875 -0.5625 0
0.8125 -0.5 0
0.875 -0.5 0
0.25 -0.375 0
0.3125 -0.375 0
0.25 -0.3125 0
[...]
POINT_DATA 1824
SCALARS U double 1
LOOKUP_TABLE default
0 0 0 1.3675e-05 0 0 1.3675e-05 6.92022e-05 0 1.3675e-05 0 2.21603e-05 1.3675e-05 6.92022e-05 2.21603e-05 0.000111858 0 0 6.92022e-05 0.000237125 0 0 0.000237125 0.000607885 0 2.21603e-05 0 1.78152e-05 2.21603e-05 0.000111858 1.78152e-05 8.8697e-05 0 1.78152e-05 0 7.23322e-06 1.78152e-05 8.8697e-05 7.23322e-06 5.23516e-05 8.8697e-05 0.00030171 5.23516e-05 0.000131214 0 0 0.000607885 0.00112728 0 7.23322e-06 0 0.000163792 0.000573631 0 0.000776338 0 0.000776338 0 0.000877736 0 0.000722567 0.000853205 0 0 0.000853205 0.000913621 0 0 0.00112728 0.00133005 0.0015208 0.00179994 0.0015208 0.00179994 0.00171656 0.00202821 0.00179994 0.00191931 0.00202821 0.00216842 0 0 0.00074999 0.000702213 0 0 0.000702213 0.000548501 0.00074999 0.000702213 0.00142041 0.00133386 0.000702213 0.000548501 0.00133386 0.00104325 0 0 0.000548501 0.000302571 0 0 0.000302571 0 0.000548501 0.000302571 0.00104325 0.000573631 0.000302571 0 0.000573631 0 0.000931902 0.00131899 0.000900316 0.00126961 0.00131899 0.00171656 0.00126961 0.00165353 0.000900316 0.00126961 0.00072237 0.00100824 0.00126961 0.00165353 0.00100824 0.00130906 0.00072237 0.00100824 0.000421378 0.000562039 0.00100824 0.00130906 0.000562039 0.000722567 0.000562039 0.000722567 0 0 0 0 0.000563642 0.000701097 0 0 0.000701097 0.00074999 0.000563642 0.000701097 0.00112728 0.00133005 0.000701097 0.00074999 0.00133005 0.00142041 0.000607885 0.000867585 0.000828151 0.00116975 0.000867585 0.00112728 0.00116975 0.0015208 0.000828151 0.00116975 0.000931902 0.00131899 0.00116975 0.0015208 0.00131899 0.00171656 0.000368482 0.000610258 0.000364225 0.00059316 0.000610258 0.000931902 0.00059316 0.000900316 0.000364225 0.00059316 0.00030171 0.000486049 0.00059316 0.000900316 0.000486049 0.00072237 0.00030171 0.000486049 0.000216462 0.000313567 0.000486049 0.00072237 0.000313567 0.000421378 0.000216462 0.000313567 0.000131214 0.000150362 7.23322e-06 2.97924e-05 8.55125e-05 7.99246e-05 2.97924e-05 5.23516e-05 7.99246e-05 9.07739e-05 8.55125e-05 7.99246e-05 0.000163792 0.000361322 7.99246e-05 9.07739e-05 0.000361322 0.00066244 0.000237125 0.000422505 0.000328118 0.000540721 0.000422505 0.000607885 0.000540721 0.000828151 0.000328118 0.000540721 0.000368482 0.000610258 0.000540721 0.000828151 0.000610258 0.000931902 0 8.18959e-05 0 7.30448e-05 8.18959e-05 0.000163792 7.30448e-05 0.000353482 0 7.30448e-05 0 6.49846e-05 7.30448e-05 0.000353482 6.49846e-05 0.000648319 6.92022e-05 0.000153164 9.053e-05 0.000182716 0.000153164 0.000237125 0.000182716 0.000328118 9.053e-05 0.000182716 0.000111858 0.00020576 0.000182716 0.000328118 0.00020576 0.000368482 0.000111858 0.00020576 0.000100277 0.000206934 0.00020576 0.000368482 0.000206934 0.000364225 0.000100277 0.000206934 8.8697e-05 0.000195204 0.000206934 0.000364225 0.000195204 0.00030171 0.000163792 0.000361322 0.000353482 0.00135503 0.000361322 0.00066244 0.00135503 0.00228574 0.000353482 0.00135503 0.000648319 0.00227497 0.00135503 0.00228574 0.00227497 0.00565964 0.000131214 0.000150362 0.000197453 0.000143706 0.000197453 0.000143706 0.000860586 0.000518037 0.000143706 0 0.000518037 0 0 0.000213352 0 0.000136723 0.000213352 0.000860133 0.000136723 0.000470588 0 0.000136723 0 0 0.000136723 0.000470588 0 0 5.23516e-05 9.1783e-05 9.07739e-05 0.000184027 9.1783e-05 0.000131214 0.000184027 0.000197453 9.07739e-05 0.000184027 0.00066244 0.000826466 0.000184027 0.000197453 0.000826466 0.000860586 0.000518037 0 0.00225992 0 0.000826466 0.000860586 0.0030469 0.00306925 0.0030469 0.00306925 0.00904646 0.00965397 0 6.49846e-05 0 0.000174985 6.49846e-05 0.000648319 0.000174985 0.000810606 0 0.000174985 0 0.000213352 0.000174985 0.000810606 0.000213352 0.000860133 0.000810606 0.0030624 0.000860133 0.00305539 0.0030624 0.00904136 0.00305539 0.00971761 0.000470588 0.00219875 0 0 0.00158706 0.0012572 0.00158971 0.00126157 0.0012572 0.000877736 0.00126157 0.00087396 0.00158971 0.00126157 0.00152693 0.00121179 0.00126157 0.00087396 0.00121179 0.00084134 0.00152693 0.00121179 0.00139911 0.00110978 0.00121179 0.00084134 0.00110978 0.000770698 0.00139911 0.00110978 0.00120802 0.000959005 0.00110978 0.000770698 0.000959005 0.00066545 0.00084134 0.000430438 0.000770698 0.000394313 0.000430438 0 0.000394313 0 0.000770698 0.000394313 0.00066545 0.000340767 0.000394313 0 0.000340767 0 0.00164374 0.00162297 0.00130652 0.00129127 0.00162297 0.00154341 0.00129127 0.0012278 0.00130652 0.00129127 0.000913621 0.000896042 0.00129127 0.0012278 0.000896042 0.000854342 0.00154341 0.00140477 0.0012278 0.00111735 0.00140477 0.00120802 0.00111735 0.000961745 0.0012278 0.00111735 0.000854342 0.000777384 0.00111735 0.000961745 0.000777384 0.000668549 0.000854342 0.000777384 0.000437634 0.000398342 0.000777384 0.000668549 0.000398342 0.000342731 0.000437634 0.000398342 0 0 0.000398342 0.000342731 0 0 0.00120802 0.000959005 0.000961745 0.00076224 0.000959005 0.00066545 0.00076224 0.000529472 0.000961745 0.00076224 0.000668549 0.000530403 0.00076224 0.000529472 0.000530403 0.000368328 0.00066545 0.000340767 0.000529472 0.000271146 0.000340767 0 0.000271146 0 0.000529472 0.000271146 0.000368328 0.000188799 0.000271146 0 0.000188799 0 0.000668549 0.000530403 0.000342731 0.000271903 0.000530403 0.000368328 0.000271903 0.000188987 0.000342731 0.000271903 0 0 0.000271903 0.000188987 0 0 0.00216842 0.00212466 0.00215736 0.00213482 0.00212466 0.00202741 0.00213482 0.0020288 0.00215736 0.00213482 0.00207765 0.00204888 0.00213482 0.0020288 0.00204888 0.0019494 0.00202741 0.00184439 0.0020288 0.00184807 0.00184439 0.00158706 0.00184807 0.00158971 0.0020288 0.00184807 0.0019494 0.00177538 0.00184807 0.00158971 0.00177538 0.00152693 0.00207765 0.00204888 0.00190235 0.00187805 0.00204888 0.0019494 0.00187805 0.00178611 0.00190235 0.00187805 0.00164374 0.00162297 0.00187805 0.00178611 0.00162297 0.00154341 0.0019494 0.00177538 0.00178611 0.00162629 0.00177538 0.00152693 0.00162629 0.00139911 0.00178611 0.00162629 0.00154341 0.00140477 0.00162629 0.00139911 0.00140477 0.00120802 0.000877736 0.000438868 0.00087396 0.000446898 0.000438868 0 0.000446898 0 0.00087396 0.000446898 0.00084134 0.000430438 0.000446898 0 0.000430438 0 0.000913621 0.000896042 0.00045681 0.000458758 0.000896042 0.000854342 0.000458758 0.000437634 0.00045681 0.000458758 0 0 0.000458758 0.000437634 0 0 0.000368328 0.000188799 0.000188987 9.65815e-05 0.000188799 0 9.65815e-05 0 0.000188987 9.65815e-05 0 0 9.65815e-05 0 0 0 0.00133386 0.00118855 0.00158078 0.00144068 0.00118855 0.00104325 0.00144068 0.00123477 0.00158078 0.00144068 0.00179591 0.00163433 0.00144068 0.00123477 0.00163433 0.00140553 0.00179591 0.00163433 0.00194697 0.00177132 0.00163433 0.00140553 0.00177132 0.0015232 0.00194697 0.00177132 0.00202741 0.00184439 0.00177132 0.0015232 0.00184439 0.00158706 0.00104325 0.000808439 0.00123477 0.000980432 0.000808439 0.000573631 0.000980432 0.000674984 0.00123477 0.000980432 0.00140553 0.00111129 0.000980432 0.000674984 0.00111129 0.000776338 0.00140553 0.00111129 0.0015232 0.00120762 0.00111129 0.000776338 0.00120762 0.000827037 0.0015232 0.00120762 0.00158706 0.0012572 0.00120762 0.000827037 0.0012572 0.000877736 0.00165353 0.00180258 0.00148129 0.00165571 0.00180258 0.0019456 0.00165571 0.00178167 0.00148129 0.00165571 0.00130906 0.00142591 0.00165571 0.00178167 0.00142591 0.00153901 0.0019456 0.00203964 0.00178167 0.00186775 0.00203964 0.00207765 0.00186775 0.00190235 0.00178167 0.00186775 0.00153901 0.0016141 0.00186775 0.00190235 0.0016141 0.00164374 0.00130906 0.00142591 0.00101581 0.00113611 0.00142591 0.00153901 0.00113611 0.0012224 0.00101581 0.00113611 0.000722567 0.000787886 0.00113611 0.0012224 0.000787886 0.000853205 0.00153901 0.0016141 0.0012224 0.00128303 0.0016141 0.00164374 0.00128303 0.00130652 0.0012224 0.00128303 0.000853205 0.000883413 0.00128303 0.00130652 0.000883413 0.000913621 0.00142041 0.00137713 0.00168315 0.00166655 0.00137713 0.00133386 0.00166655 0.00158078 0.00168315 0.00166655 0.00191931 0.00188146 0.00166655 0.00158078 0.00188146 0.00179591 0.00191931 0.00188146 0.00204386 0.00204106 0.00188146 0.00179591 0.00204106 0.00194697 0.00204386 0.00204106 0.00216842 0.00212466 0.00204106 0.00194697 0.00212466 0.00202741 0.000860586 0.000689312 0.00196492 0.00145323 0.000689312 0.000518037 0.00145323 0.00138898 0.00196492 0.00145323 0.00306925 0.00321826 0.00145323 0.00138898 0.00321826 0.00225992 0.00306925 0.00321826 0.00636161 0.00519267 0.00321826 0.00225992 0.00519267 0.0039157 0.00636161 0.00519267 0.00965397 0.0091913 0.00519267 0.0039157 0.0091913 0.0070467 0.00171656 0.00187238 0.00168504 0.00188082 0.00187238 0.00202821 0.00188082 0.00201976 0.00168504 0.00188082 0.00165353 0.00180258 0.00188082 0.00201976 0.00180258 0.0019456 0.00202821 0.00209831 0.00201976 0.00211971 0.00209831 0.00216842 0.00211971 0.00215736 0.00201976 0.00211971 0.0019456 0.00203964 0.00211971 0.00215736 0.00203964 0.00207765 0.00225992 0.00112996 0.0039157 0.00221303 0.00112996 0 0.00221303 0 0.0039157 0.00221303 0.0070467 0.00459247 0.00221303 0 0.00459247 0 0.00066244 0.000744453 0.00147409 0.00153172 0.000744453 0.000826466 0.00153172 0.00193668 0.00147409 0.00153172 0.00228574 0.00307259 0.00153172 0.00193668 0.00307259 0.0030469 0.00133005 0.00137523 0.00156499 0.00165441 0.00137523 0.00142041 0.00165441 0.00168315 0.00156499 0.00165441 0.00179994 0.00185962 0.00165441 0.00168315 0.00185962 0.00191931 0.00228574 0.00307259 0.00397269 0.00463158 0.00307259 0.0030469 0.00463158 0.00604668 0.00397269 0.00463158 0.00565964 0.00805095 0.00463158 0.00604668 0.00805095 0.00904646 0.000648319 0.00146164 0.000729463 0.00151757 0.00146164 0.00227497 0.00151757 0.00305736 0.000729463 0.00151757 0.000810606 0.00193651 0.00151757 0.00305736 0.00193651 0.0030624 0.00227497 0.00396731 0.00305736 0.00461683 0.00396731 0.00565964 0.00461683 0.00804368 0.00305736 0.00461683 0.0030624 0.00605188 0.00461683 0.00804368 0.00605188 0.00904136 0.000860133 0.00195776 0.00066536 0.00142532 0.00195776 0.00305539 0.00142532 0.00314763 0.00066536 0.00142532 0.000470588 0.00133467 0.00142532 0.00314763 0.00133467 0.00219875 0.00219875 0.00385195 0.00109938 0.00217057 0.00385195 0.00709896 0.00217057 0.00455754 0.00109938 0.00217057 0 0 0.00217057 0.00455754 0 0 0.00305539 0.0063865 0.00314763 0.00535132 0.0063865 0.00971761 0.00535132 0.00902742 0.00314763 0.00535132 0.00219875 0.00385195 0.00535132 0.00902742 0.00385195 0.00709896 0.00565964 0.00805095 0.00804368 0.0107356 0.00805095 0.00904646 0.0107356 0.0126808 0.00804368 0.0107356 0.00904136 0.0126808 0.00904646 0.00935021 0.0126808 0.0135576 0.00935021 0.00965397 0.0135576 0.0134891 0.0126808 0.0135576 0.0148992 0.0159187 0.0135576 0.0134891 0.0159187 0.0157936 0.00904136 0.0126808 0.00937948 0.0135746 0.0126808 0.0148992 0.0135746 0.0159265 0.00937948 0.0135746 0.00971761 0.0135232 0.0135746 0.0159265 0.0135232 0.0158573 0.000421378 0.000491708 0.000240071 0.00025217 0.000491708 0.000562039 0.00025217 0.00028102 0.000240071 0.00025217 0 0 0.00025217 0.00028102 0 0 0.0148992 0.0159187 0.0159265 0.0169708 0.0159187 0.0157936 0.0169708 0.0168491 0.0159265 0.0169708 0.0158573 0.0169013 0.0169708 0.0168491 0.0169013 0.0167225 0.00965397 0.0091913 0.0134891 0.0123243 0.00459247 0 0.00624319 0 0.000313567 0.000367472 0.000231965 0.000230501 0.000367472 0.000421378 0.000230501 0.000240071 0.000231965 0.000230501 0.000150362 0.000135662 0.000230501 0.000240071 0.000135662 0 0.00971761 0.0135232 0.00902742 0.0124126 0.0158573 0.0169013 0.0145252 0.0154908 0.00455754 0.00623073 0 0 0.000150362 0.000135662 0.000147034 7.55992e-05 0.000135662 0 7.55992e-05 0 0.000147034 7.55992e-05 0.000143706 7.18528e-05 7.55992e-05 0 7.18528e-05 0 0.00416508 0 0 0 0.0107356 0.0117082 0.0117082 0.0131541 0.0117082 0.0126808 0.0131541 0.01379 0.0117082 0.0131541 0.0126808 0.01379 0.0131541 0.01379 0.01379 0.0148992 0.0091913 0.008119 0.0107578 0.0101518 0.008119 0.0070467 0.0101518 0.00875159 0.0107578 0.0101518 0.0123243 0.0114119 0.0101518 0.00875159 0.0114119 0.0100052 0.0134891 0.0129067 0.0146413 0.0144668 0.0129067 0.0123243 0.0144668 0.013589 0.0146413 0.0144668 0.0157936 0.0152643 0.0144668 0.013589 0.0152643 0.0143777 0.0123243 0.0114119 0.013589 0.0127042 0.0114119 0.0100052 0.0127042 0.0111032 0.013589 0.0127042 0.0143777 0.0134159 0.0127042 0.0111032 0.0134159 0.0117106 0.0070467 0.00581959 0.00875159 0.00751977 0.00581959 0.00459247 0.00751977 0.00541783 0.00875159 0.00751977 0.0100052 0.00844702 0.00751977 0.00541783 0.00844702 0.00624319 0.0100052 0.00844702 0.0111032 0.00943205 0.00844702 0.00624319 0.00943205 0.00670221 0.0111032 0.00943205 0.0117106 0.00992809 0.00943205 0.00670221 0.00992809 0.00709486 0.00624319 0.00312159 0.00670221 0.00401179 0.00312159 0 0.00401179 0 0.00670221 0.00401179 0.00709486 0.00422297 0.00401179 0 0.00422297 0 0.0157936 0.0152643 0.0163214 0.0160687 0.0152643 0.0143777 0.0160687 0.0150993 0.0163214 0.0160687 0.0168491 0.0163017 0.0160687 0.0150993 0.0163017 0.015347 0.0143777 0.0134159 0.0150993 0.014092 0.0134159 0.0117106 0.014092 0.0122963 0.0150993 0.014092 0.015347 0.0143232 0.014092 0.0122963 0.0143232 0.0124925 0.0168491 0.0163017 0.0167858 0.0165421 0.0163017 0.015347 0.0165421 0.0155516 0.0167858 0.0165421 0.0167225 0.016251 0.0165421 0.0155516 0.016251 0.0153046 0.015347 0.0143232 0.0155516 0.0145154 0.0143232 0.0124925 0.0145154 0.0126611 0.0155516 0.0145154 0.0153046 0.0142955 0.0145154 0.0126611 0.0142955 0.0124766 0.0117106 0.00992809 0.0122963 0.0104131 0.00992809 0.00709486 0.0104131 0.0074325 0.0122963 0.0104131 0.0124925 0.0105778 0.0104131 0.0074325 0.0105778 0.00754294 0.00709486 0.00422297 0.0074325 0.0044047 0.00422297 0 0.0044047 0 0.0074325 0.0044047 0.00754294 0.0044654 0.0044047 0 0.0044654 0 0.0124925 0.0105778 0.0126611 0.0107147 0.0105778 0.00754294 0.0107147 0.00763979 0.0126611 0.0107147 0.0124766 0.0105711 0.0107147 0.00763979 0.0105711 0.00754089 0.00754294 0.0044654 0.00763979 0.00451585 0.0044654 0 0.00451585 0 0.00763979 0.00451585 0.00754089 0.00446577 0.00451585 0 0.00446577 0 0.0135232 0.0146902 0.0129679 0.0145153 0.0146902 0.0158573 0.0145153 0.0151912 0.0129679 0.0145153 0.0124126 0.0136242 0.0145153 0.0151912 0.0136242 0.0145252 0.00902742 0.01072 0.00806319 0.0101724 0.01072 0.0124126 0.0101724 0.0114497 0.00806319 0.0101724 0.00709896 0.00878826 0.0101724 0.0114497 0.00878826 0.00999676 0.0124126 0.0136242 0.0114497 0.0127421 0.0136242 0.0145252 0.0127421 0.0134342 0.0114497 0.0127421 0.00999676 0.0111116 0.0127421 0.0134342 0.0111116 0.0117245 0.0169013 0.0168119 0.016196 0.016557 0.0168119 0.0167225 0.016557 0.0162553 0.016196 0.016557 0.0154908 0.0155557 0.016557 0.0162553 0.0155557 0.0153086 0.0145252 0.015008 0.0134342 0.0141203 0.015008 0.0154908 0.0141203 0.0143316 0.0134342 0.0141203 0.0117245 0.0123043 0.0141203 0.0143316 0.0123043 0.0124993 0.0154908 0.0155557 0.0143316 0.0145321 0.0155557 0.0153086 0.0145321 0.014298 0.0143316 0.0145321 0.0124993 0.0126641 0.0145321 0.014298 0.0126641 0.0124789 0.00709896 0.00878826 0.00582825 0.00750006 0.00878826 0.00999676 0.00750006 0.00842343 0.00582825 0.00750006 0.00455754 0.00539414 0.00750006 0.00842343 0.00539414 0.00623073 0.00999676 0.0111116 0.00842343 0.00942975 0.0111116 0.0117245 0.00942975 0.0099299 0.00842343 0.00942975 0.00623073 0.00670097 0.00942975 0.0099299 0.00670097 0.00709215 0.00623073 0.00670097 0.00311537 0.0040071 0.00670097 0.00709215 0.0040071 0.00421957 0.00311537 0.0040071 0 0 0.0040071 0.00421957 0 0 0.0117245 0.0123043 0.0099299 0.0104155 0.0123043 0.0124993 0.0104155 0.0105794 0.0099299 0.0104155 0.00709215 0.00743273 0.0104155 0.0105794 0.00743273 0.00754319 0.0124993 0.0126641 0.0105794 0.0107155 0.0126641 0.0124789 0.0107155 0.0105713 0.0105794 0.0107155 0.00754319 0.00763983 0.0107155 0.0105713 0.00763983 0.00754078 0.00709215 0.00743273 0.00421957 0.00440387 0.00743273 0.00754319 0.00440387 0.00446501 0.00421957 0.00440387 0 0 0.00440387 0.00446501 0 0 0.00754319 0.00763983 0.00446501 0.00451555 0.00763983 0.00754078 0.00451555 0.0044655 0.00446501 0.00451555 0 0 0.00451555 0.0044655 0 0 0.0167225 0.016251 0.0162553 0.0159246 0.016251 0.0153046 0.0159246 0.0149973 0.0162553 0.0159246 0.0153086 0.0149979 0.0159246 0.0149973 0.0149979 0.01415 0.0153046 0.0142955 0.0149973 0.014017 0.0142955 0.0124766 0.014017 0.0122458 0.0149973 0.014017 0.01415 0.0132482 0.014017 0.0122458 0.0132482 0.0115938 0.0153086 0.0149979 0.014298 0.0140176 0.0149979 0.01415 0.0140176 0.0132482 0.014298 0.0140176 0.0124789 0.012246 0.0140176 0.0132482 0.012246 0.0115937 0.01415 0.0132482 0.0132482 0.0124245 0.0132482 0.0115938 0.0124245 0.0109061 0.0132482 0.0124245 0.0115937 0.010906 0.0124245 0.0109061 0.010906 0.00961065 0.0124766 0.0105711 0.0122458 0.0103856 0.0105711 0.00754089 0.0103856 0.00741717 0.0122458 0.0103856 0.0115938 0.00986564 0.0103856 0.00741717 0.00986564 0.00706029 0.00754089 0.00446577 0.00741717 0.00440064 0.00446577 0 0.00440064 0 0.00741717 0.00440064 0.00706029 0.00421591 0.00440064 0 0.00421591 0 0.0115938 0.00986564 0.0109061 0.00930715 0.00986564 0.00706029 0.00930715 0.00668265 0.0109061 0.00930715 0.00961065 0.00825342 0.00930715 0.00668265 0.00825342 0.00595514 0.00706029 0.00421591 0.00668265 0.00401643 0.00421591 0 0.00401643 0 0.00668265 0.00401643 0.00595514 0.00363299 0.00401643 0 0.00363299 0 0.0124789 0.012246 0.0105713 0.0103853 0.012246 0.0115937 0.0103853 0.00986519 0.0105713 0.0103853 0.00754078 0.00741682 0.0103853 0.00986519 0.00741682 0.00705995 0.0115937 0.010906 0.00986519 0.00930685 0.010906 0.00961065 0.00930685 0.00825324 0.00986519 0.00930685 0.00705995 0.00668243 0.00930685 0.00825324 0.00668243 0.00595501 0.00754078 0.00741682 0.0044655 0.00440031 0.00741682 0.00705995 0.00440031 0.00421562 0.0044655 0.00440031 0 0 0.00440031 0.00421562 0 0 0.00705995 0.00668243 0.00421562 0.00401623 0.00668243 0.00595501 0.00401623 0.00363286 0.00421562 0.00401623 0 0 0.00401623 0.00363286 0 0 0.00961065 0.00825342 0.00825324 0.00716341 0.00825342 0.00595514 0.00716341 0.00517691 0.00825324 0.00716341 0.00595501 0.0051769 0.00716341 0.00517691 0.0051769 0.00416508 0.00595514 0.00363299 0.00517691 0.00322764 0.00363299 0 0.00322764 0 0.00517691 0.00322764 0.00416508 0.00208254 0.00322764 0 0.00208254 0 0.00595501 0.0051769 0.00363286 0.00322759 0.0051769 0.00416508 0.00322759 0.00208254 0.00363286 0.00322759 0 0 0.00322759 0.00208254 0 0 
