<?xml version="1.0" ?> 
<!-- 
# vtk DataFile Version 3.0
#This file was generated by the deal.II library on 21:42:02 at 2021/4/29
-->
<VTKFile type="UnstructuredGrid" version="0.1" byte_order="LittleEndian">
<UnstructuredGrid>
<Piece NumberOfPoints="65536" NumberOfCells="16384" >
  <Points>
    <DataArray type="Float32" NumberOfComponents="3" format="ascii">
-1 -1 0
-0.984375 -1 0
-1 -0.984375 0
-0.984375 -0.984375 0
-0.984375 -1 0
-0.96875 -1 0
-0.984375 -0.984375 0
-0.96875 -0.984375 0
-1 -0.984375 0
-0.984375 -0.984375 0
-1 -0.96875 0
-0.984375 -0.96875 0
-0.984375 -0.984375 0
-0.96875 -0.984375 0
-0.984375 -0.96875 0
-0.96875 -0.96875 0
-0.96875 -1 0
-0.953125 -1 0
-0.96875 -0.984375 0
-0.953125 -0.984375 0
-0.953125 -1 0
-0.9375 -1 0
-0.953125 -0.984375 0
-0.9375 -0.984375 0
-0.96875 -0.984375 0
-0.953125 -0.984375 0
-0.96875 -0.96875 0
-0.953125 -0.96875 0
-0.953125 -0.984375 0
-0.9375 -0.984375 0
-0.953125 -0.96875 0
-0.9375 -0.96875 0
-1 -0.96875 0
-0.984375 -0.96875 0
-1 -0.953125 0
-0.984375 -0.953125 0
-0.984375 -0.96875 0
-0.96875 -0.96875 0
-0.984375 -0.953125 0
-0.96875 -0.953125 0
-1 -0.953125 0
-0.984375 -0.953125 0
-1 -0.9375 0
-0.984375 -0.9375 0
-0.984375 -0.953125 0
-0.96875 -0.953125 0
-0.984375 -0.9375 0
-0.96875 -0.9375 0
-0.96875 -0.96875 0
-0.953125 -0.96875 0
-0.96875 -0.953125 0
-0.953125 -0.953125 0
-0.953125 -0.96875 0
-0.9375 -0.96875 0
-0.953125 -0.953125 0
-0.9375 -0.953125 0
-0.96875 -0.953125 0
-0.953125 -0.953125 0
-0.96875 -0.9375 0
-0.953125 -0.9375 0
-0.953125 -0.953125 0
-0.9375 -0.953125 0
-0.953125 -0.9375 0
-0.9375 -0.9375 0
-0.9375 -1 0
-0.921875 -1 0
-0.9375 -0.984375 0
-0.921875 -0.984375 0
-0.921875 -1 0
-0.90625 -1 0
-0.921875 -0.984375 0
-0.90625 -0.984375 0
-0.9375 -0.984375 0
-0.921875 -0.984375 0
-0.9375 -0.96875 0
-0.921875 -0.96875 0
-0.921875 -0.984375 0
-0.90625 -0.984375 0
-0.921875 -0.96875 0
-0.90625 -0.96875 0
-0.90625 -1 0
-0.890625 -1 0
-0.90625 -0.984375 0
-0.890625 -0.984375 0
-0.890625 -1 0
-0.875 -1 0
-0.890625 -0.984375 0
-0.875 -0.984375 0
-0.90625 -0.984375 0
-0.890625 -0.984375 0
-0.90625 -0.96875 0
-0.890625 -0.96875 0
-0.890625 -0.984375 0
-0.875 -0.984375 0
-0.890625 -0.96875 0
-0.875 -0.96875 0
-0.9375 -0.96875 0
-0.921875 -0.96875 0
-0.9375 -0.953125 0
-0.921875 -0.953125 0
-0.921875 -0.96875 0
-0.90625 -0.96875 0
-0.921875 -0.953125 0
-0.90625 -0.953125 0
-0.9375 -0.953125 0
-0.921875 -0.953125 0
-0.9375 -0.9375 0
-0.921875 -0.9375 0
-0.921875 -0.953125 0
-0.90625 -0.953125 0
-0.921875 -0.9375 0
-0.90625 -0.9375 0
-0.90625 -0.96875 0
-0.890625 -0.96875 0
-0.90625 -0.953125 0
-0.890625 -0.953125 0
-0.890625 -0.96875 0
-0.875 -0.96875 0
-0.890625 -0.953125 0
-0.875 -0.953125 0
-0.90625 -0.953125 0
-0.890625 -0.953125 0
-0.90625 -0.9375 0
-0.890625 -0.9375 0
-0.890625 -0.953125 0
-0.875 -0.953125 0
-0.890625 -0.9375 0
-0.875 -0.9375 0
-1 -0.9375 0
-0.984375 -0.9375 0
-1 -0.921875 0
-0.984375 -0.921875 0
-0.984375 -0.9375 0
-0.96875 -0.9375 0
-0.984375 -0.921875 0
-0.96875 -0.921875 0
-1 -0.921875 0
-0.984375 -0.921875 0
-1 -0.90625 0
-0.984375 -0.90625 0
-0.984375 -0.921875 0
-0.96875 -0.921875 0
-0.984375 -0.90625 0
-0.96875 -0.90625 0
-0.96875 -0.9375 0
-0.953125 -0.9375 0
-0.96875 -0.921875 0
-0.953125 -0.921875 0
-0.953125 -0.9375 0
-0.9375 -0.9375 0
-0.953125 -0.921875 0
-0.9375 -0.921875 0
-0.96875 -0.921875 0
-0.953125 -0.921875 0
-0.96875 -0.90625 0
-0.953125 -0.90625 0
-0.953125 -0.921875 0
-0.9375 -0.921875 0
-0.953125 -0.90625 0
-0.9375 -0.90625 0
-1 -0.90625 0
-0.984375 -0.90625 0
-1 -0.890625 0
-0.984375 -0.890625 0
-0.984375 -0.90625 0
-0.96875 -0.90625 0
-0.984375 -0.890625 0
-0.96875 -0.890625 0
-1 -0.890625 0
-0.984375 -0.890625 0
-1 -0.875 0
-0.984375 -0.875 0
-0.984375 -0.890625 0
-0.96875 -0.890625 0
-0.984375 -0.875 0
-0.96875 -0.875 0
-0.96875 -0.90625 0
-0.953125 -0.90625 0
-0.96875 -0.890625 0
-0.953125 -0.890625 0
-0.953125 -0.90625 0
-0.9375 -0.90625 0
-0.953125 -0.890625 0
-0.9375 -0.890625 0
-0.96875 -0.890625 0
-0.953125 -0.890625 0
-0.96875 -0.875 0
-0.953125 -0.875 0
-0.953125 -0.890625 0
-0.9375 -0.890625 0
-0.953125 -0.875 0
-0.9375 -0.875 0
-0.9375 -0.9375 0
-0.921875 -0.9375 0
-0.9375 -0.921875 0
-0.921875 -0.921875 0
-0.921875 -0.9375 0
-0.90625 -0.9375 0
-0.921875 -0.921875 0
-0.90625 -0.921875 0
-0.9375 -0.921875 0
-0.921875 -0.921875 0
-0.9375 -0.90625 0
-0.921875 -0.90625 0
-0.921875 -0.921875 0
-0.90625 -0.921875 0
-0.921875 -0.90625 0
-0.90625 -0.90625 0
-0.90625 -0.9375 0
-0.890625 -0.9375 0
-0.90625 -0.921875 0
-0.890625 -0.921875 0
-0.890625 -0.9375 0
-0.875 -0.9375 0
-0.890625 -0.921875 0
-0.875 -0.921875 0
-0.90625 -0.921875 0
-0.890625 -0.921875 0
-0.90625 -0.90625 0
-0.890625 -0.90625 0
-0.890625 -0.921875 0
-0.875 -0.921875 0
-0.890625 -0.90625 0
-0.875 -0.90625 0
-0.9375 -0.90625 0
-0.921875 -0.90625 0
-0.9375 -0.890625 0
-0.921875 -0.890625 0
-0.921875 -0.90625 0
-0.90625 -0.90625 0
-0.921875 -0.890625 0
-0.90625 -0.890625 0
-0.9375 -0.890625 0
-0.921875 -0.890625 0
-0.9375 -0.875 0
-0.921875 -0.875 0
-0.921875 -0.890625 0
-0.90625 -0.890625 0
-0.921875 -0.875 0
-0.90625 -0.875 0
-0.90625 -0.90625 0
-0.890625 -0.90625 0
-0.90625 -0.890625 0
-0.890625 -0.890625 0
-0.890625 -0.90625 0
-0.875 -0.90625 0
-0.890625 -0.890625 0
-0.875 -0.890625 0
-0.90625 -0.890625 0
-0.890625 -0.890625 0
-0.90625 -0.875 0
-0.890625 -0.875 0
-0.890625 -0.890625 0
-0.875 -0.890625 0
-0.890625 -0.875 0
-0.875 -0.875 0
-0.875 -1 0
-0.859375 -1 0
-0.875 -0.984375 0
-0.859375 -0.984375 0
-0.859375 -1 0
-0.84375 -1 0
-0.859375 -0.984375 0
-0.84375 -0.984375 0
-0.875 -0.984375 0
-0.859375 -0.984375 0
-0.875 -0.96875 0
-0.859375 -0.96875 0
-0.859375 -0.984375 0
-0.84375 -0.984375 0
-0.859375 -0.96875 0
-0.84375 -0.96875 0
-0.84375 -1 0
-0.828125 -1 0
-0.84375 -0.984375 0
-0.828125 -0.984375 0
-0.828125 -1 0
-0.8125 -1 0
-0.828125 -0.984375 0
-0.8125 -0.984375 0
-0.84375 -0.984375 0
-0.828125 -0.984375 0
-0.84375 -0.96875 0
-0.828125 -0.96875 0
-0.828125 -0.984375 0
-0.8125 -0.984375 0
-0.828125 -0.96875 0
-0.8125 -0.96875 0
-0.875 -0.96875 0
-0.859375 -0.96875 0
-0.875 -0.953125 0
-0.859375 -0.953125 0
-0.859375 -0.96875 0
-0.84375 -0.96875 0
-0.859375 -0.953125 0
-0.84375 -0.953125 0
-0.875 -0.953125 0
-0.859375 -0.953125 0
-0.875 -0.9375 0
-0.859375 -0.9375 0
-0.859375 -0.953125 0
-0.84375 -0.953125 0
-0.859375 -0.9375 0
-0.84375 -0.9375 0
-0.84375 -0.96875 0
-0.828125 -0.96875 0
-0.84375 -0.953125 0
-0.828125 -0.953125 0
-0.828125 -0.96875 0
-0.8125 -0.96875 0
-0.828125 -0.953125 0
-0.8125 -0.953125 0
-0.84375 -0.953125 0
-0.828125 -0.953125 0
-0.84375 -0.9375 0
-0.828125 -0.9375 0
-0.828125 -0.953125 0
-0.8125 -0.953125 0
-0.828125 -0.9375 0
-0.8125 -0.9375 0
-0.8125 -1 0
-0.796875 -1 0
-0.8125 -0.984375 0
-0.796875 -0.984375 0
-0.796875 -1 0
-0.78125 -1 0
-0.796875 -0.984375 0
-0.78125 -0.984375 0
-0.8125 -0.984375 0
-0.796875 -0.984375 0
-0.8125 -0.96875 0
-0.796875 -0.96875 0
-0.796875 -0.984375 0
-0.78125 -0.984375 0
-0.796875 -0.96875 0
-0.78125 -0.96875 0
-0.78125 -1 0
-0.765625 -1 0
-0.78125 -0.984375 0
-0.765625 -0.984375 0
-0.765625 -1 0
-0.75 -1 0
-0.765625 -0.984375 0
-0.75 -0.984375 0
-0.78125 -0.984375 0
-0.765625 -0.984375 0
-0.78125 -0.96875 0
-0.765625 -0.96875 0
-0.765625 -0.984375 0
-0.75 -0.984375 0
-0.765625 -0.96875 0
-0.75 -0.96875 0
-0.8125 -0.96875 0
-0.796875 -0.96875 0
-0.8125 -0.953125 0
-0.796875 -0.953125 0
-0.796875 -0.96875 0
-0.78125 -0.96875 0
-0.796875 -0.953125 0
-0.78125 -0.953125 0
-0.8125 -0.953125 0
-0.796875 -0.953125 0
-0.8125 -0.9375 0
-0.796875 -0.9375 0
-0.796875 -0.953125 0
-0.78125 -0.953125 0
-0.796875 -0.9375 0
-0.78125 -0.9375 0
-0.78125 -0.96875 0
-0.765625 -0.96875 0
-0.78125 -0.953125 0
-0.765625 -0.953125 0
-0.765625 -0.96875 0
-0.75 -0.96875 0
-0.765625 -0.953125 0
-0.75 -0.953125 0
-0.78125 -0.953125 0
-0.765625 -0.953125 0
-0.78125 -0.9375 0
-0.765625 -0.9375 0
-0.765625 -0.953125 0
-0.75 -0.953125 0
-0.765625 -0.9375 0
-0.75 -0.9375 0
-0.875 -0.9375 0
-0.859375 -0.9375 0
-0.875 -0.921875 0
-0.859375 -0.921875 0
-0.859375 -0.9375 0
-0.84375 -0.9375 0
-0.859375 -0.921875 0
-0.84375 -0.921875 0
-0.875 -0.921875 0
-0.859375 -0.921875 0
-0.875 -0.90625 0
-0.859375 -0.90625 0
-0.859375 -0.921875 0
-0.84375 -0.921875 0
-0.859375 -0.90625 0
-0.84375 -0.90625 0
-0.84375 -0.9375 0
-0.828125 -0.9375 0
-0.84375 -0.921875 0
-0.828125 -0.921875 0
-0.828125 -0.9375 0
-0.8125 -0.9375 0
-0.828125 -0.921875 0
-0.8125 -0.921875 0
-0.84375 -0.921875 0
-0.828125 -0.921875 0
-0.84375 -0.90625 0
-0.828125 -0.90625 0
-0.828125 -0.921875 0
-0.8125 -0.921875 0
-0.828125 -0.90625 0
-0.8125 -0.90625 0
-0.875 -0.90625 0
-0.859375 -0.90625 0
-0.875 -0.890625 0
-0.859375 -0.890625 0
-0.859375 -0.90625 0
-0.84375 -0.90625 0
-0.859375 -0.890625 0
-0.84375 -0.890625 0
-0.875 -0.890625 0
-0.859375 -0.890625 0
-0.875 -0.875 0
-0.859375 -0.875 0
-0.859375 -0.890625 0
-0.84375 -0.890625 0
-0.859375 -0.875 0
-0.84375 -0.875 0
-0.84375 -0.90625 0
-0.828125 -0.90625 0
-0.84375 -0.890625 0
-0.828125 -0.890625 0
-0.828125 -0.90625 0
-0.8125 -0.90625 0
-0.828125 -0.890625 0
-0.8125 -0.890625 0
-0.84375 -0.890625 0
-0.828125 -0.890625 0
-0.84375 -0.875 0
-0.828125 -0.875 0
-0.828125 -0.890625 0
-0.8125 -0.890625 0
-0.828125 -0.875 0
-0.8125 -0.875 0
-0.8125 -0.9375 0
-0.796875 -0.9375 0
-0.8125 -0.921875 0
-0.796875 -0.921875 0
-0.796875 -0.9375 0
-0.78125 -0.9375 0
-0.796875 -0.921875 0
-0.78125 -0.921875 0
-0.8125 -0.921875 0
-0.796875 -0.921875 0
-0.8125 -0.90625 0
-0.796875 -0.90625 0
-0.796875 -0.921875 0
-0.78125 -0.921875 0
-0.796875 -0.90625 0
-0.78125 -0.90625 0
-0.78125 -0.9375 0
-0.765625 -0.9375 0
-0.78125 -0.921875 0
-0.765625 -0.921875 0
-0.765625 -0.9375 0
-0.75 -0.9375 0
-0.765625 -0.921875 0
-0.75 -0.921875 0
-0.78125 -0.921875 0
-0.765625 -0.921875 0
-0.78125 -0.90625 0
-0.765625 -0.90625 0
-0.765625 -0.921875 0
-0.75 -0.921875 0
-0.765625 -0.90625 0
-0.75 -0.90625 0
-0.8125 -0.90625 0
-0.796875 -0.90625 0
-0.8125 -0.890625 0
-0.796875 -0.890625 0
-0.796875 -0.90625 0
[...]
  <PointData Scalars="scalars">
    <DataArray type="Float32" Name="U" format="ascii">
0 0 0 1.04195e-06 0 0 1.04195e-06 2.01445e-06 0 1.04195e-06 0 3.67082e-06 1.04195e-06 2.01445e-06 3.67082e-06 7.09734e-06 0 0 2.01445e-06 2.85569e-06 0 0 2.85569e-06 3.51796e-06 2.01445e-06 2.85569e-06 7.09734e-06 1.0062e-05 2.85569e-06 3.51796e-06 1.0062e-05 1.23968e-05 0 3.67082e-06 0 1.12932e-05 3.67082e-06 7.09734e-06 1.12932e-05 2.18402e-05 0 1.12932e-05 0 3.21662e-05 1.12932e-05 2.18402e-05 3.21662e-05 6.22408e-05 7.09734e-06 1.0062e-05 2.18402e-05 3.09759e-05 1.0062e-05 1.23968e-05 3.09759e-05 3.81844e-05 2.18402e-05 3.09759e-05 6.22408e-05 8.8354e-05 3.09759e-05 3.81844e-05 8.8354e-05 0.000109048 0 0 3.51796e-06 3.97198e-06 0 0 3.97198e-06 4.2087e-06 3.51796e-06 3.97198e-06 1.23968e-05 1.39983e-05 3.97198e-06 4.2087e-06 1.39983e-05 1.48344e-05 0 0 4.2087e-06 4.23831e-06 0 0 4.23831e-06 4.08698e-06 4.2087e-06 4.23831e-06 1.48344e-05 1.49405e-05 4.23831e-06 4.08698e-06 1.49405e-05 1.44083e-05 1.23968e-05 1.39983e-05 3.81844e-05 4.31469e-05 1.39983e-05 1.48344e-05 4.31469e-05 4.57603e-05 3.81844e-05 4.31469e-05 0.000109048 0.000123406 4.31469e-05 4.57603e-05 0.000123406 0.000131114 1.48344e-05 1.49405e-05 4.57603e-05 4.61281e-05 1.49405e-05 1.44083e-05 4.61281e-05 4.45272e-05 4.57603e-05 4.61281e-05 0.000131114 0.000132434 4.61281e-05 4.45272e-05 0.000132434 0.000128118 0 3.21662e-05 0 8.46522e-05 3.21662e-05 6.22408e-05 8.46522e-05 0.000163952 0 8.46522e-05 0 0.000204346 8.46522e-05 0.000163952 0.000204346 0.000396337 6.22408e-05 8.8354e-05 0.000163952 0.000233093 8.8354e-05 0.000109048 0.000233093 0.000288287 0.000163952 0.000233093 0.000396337 0.000564799 0.000233093 0.000288287 0.000564799 0.000700779 0 0.000204346 0 0.000448681 0.000204346 0.000396337 0.000448681 0.000872028 0 0.000448681 0 0.000888191 0.000448681 0.000872028 0.000888191 0.00173113 0.000396337 0.000564799 0.000872028 0.00124689 0.000564799 0.000700779 0.00124689 0.00155423 0.000872028 0.00124689 0.00173113 0.0024868 0.00124689 0.00155423 0.0024868 0.00311944 0.000109048 0.000123406 0.000288287 0.000327097 0.000123406 0.000131114 0.000327097 0.000348594 0.000288287 0.000327097 0.000700779 0.000798301 0.000327097 0.000348594 0.000798301 0.000854771 0.000131114 0.000132434 0.000348594 0.000353325 0.000132434 0.000128118 0.000353325 0.000343111 0.000348594 0.000353325 0.000854771 0.000870979 0.000353325 0.000343111 0.000870979 0.000850728 0.000700779 0.000798301 0.00155423 0.00178071 0.000798301 0.000854771 0.00178071 0.00191955 0.00155423 0.00178071 0.00311944 0.00360217 0.00178071 0.00191955 0.00360217 0.0039189 0.000854771 0.000870979 0.00191955 0.00197084 0.000870979 0.000850728 0.00197084 0.00194102 0.00191955 0.00197084 0.0039189 0.00406538 0.00197084 0.00194102 0.00406538 0.00404919 0 0 4.08698e-06 3.79202e-06 0 0 3.79202e-06 3.39639e-06 4.08698e-06 3.79202e-06 1.44083e-05 1.33692e-05 3.79202e-06 3.39639e-06 1.33692e-05 1.19744e-05 0 0 3.39639e-06 2.94337e-06 0 0 2.94337e-06 2.47216e-06 3.39639e-06 2.94337e-06 1.19744e-05 1.03765e-05 2.94337e-06 2.47216e-06 1.03765e-05 8.71402e-06 1.44083e-05 1.33692e-05 4.45272e-05 4.13564e-05 1.33692e-05 1.19744e-05 4.13564e-05 3.70781e-05 4.45272e-05 4.13564e-05 0.000128118 0.000119273 4.13564e-05 3.70781e-05 0.000119273 0.000107193 1.19744e-05 1.03765e-05 3.70781e-05 3.21611e-05 1.03765e-05 8.71402e-06 3.21611e-05 2.70328e-05 3.70781e-05 3.21611e-05 0.000107193 9.32074e-05 3.21611e-05 2.70328e-05 9.32074e-05 7.85375e-05 0 0 2.47216e-06 2.01491e-06 0 0 2.01491e-06 1.5951e-06 2.47216e-06 2.01491e-06 8.71402e-06 7.1006e-06 2.01491e-06 1.5951e-06 7.1006e-06 5.61929e-06 0 0 1.5951e-06 1.22739e-06 0 0 1.22739e-06 9.18503e-07 1.5951e-06 1.22739e-06 5.61929e-06 4.32199e-06 1.22739e-06 9.18503e-07 4.32199e-06 3.23247e-06 8.71402e-06 7.1006e-06 2.70328e-05 2.20456e-05 7.1006e-06 5.61929e-06 2.20456e-05 1.74587e-05 2.70328e-05 2.20456e-05 7.85375e-05 6.42018e-05 2.20456e-05 1.74587e-05 6.42018e-05 5.09602e-05 5.61929e-06 4.32199e-06 1.74587e-05 1.34355e-05 4.32199e-06 3.23247e-06 1.34355e-05 1.00525e-05 1.74587e-05 1.34355e-05 5.09602e-05 3.9301e-05 1.34355e-05 1.00525e-05 3.9301e-05 2.94623e-05 0.000128118 0.000119273 0.000343111 0.00032072 0.000119273 0.000107193 0.00032072 0.000289464 0.000343111 0.00032072 0.000850728 0.000800158 0.00032072 0.000289464 0.000800158 0.000726879 0.000107193 9.32074e-05 0.000289464 0.000252795 9.32074e-05 7.85375e-05 0.000252795 0.000213945 0.000289464 0.000252795 0.000726879 0.000639045 0.000252795 0.000213945 0.000639045 0.000544496 0.000850728 0.000800158 0.00194102 0.00184183 0.000800158 0.000726879 0.00184183 0.00168864 0.00194102 0.00184183 0.00404919 0.00388846 0.00184183 0.00168864 0.00388846 0.00360971 0.000726879 0.000639045 0.00168864 0.00149869 0.000639045 0.000544496 0.00149869 0.00128921 0.00168864 0.00149869 0.00360971 0.00324475 0.00149869 0.00128921 0.00324475 0.00282733 7.85375e-05 6.42018e-05 0.000213945 0.000175658 6.42018e-05 5.09602e-05 0.000175658 0.000140024 0.000213945 0.000175658 0.000544496 0.000450069 0.000175658 0.000140024 0.000450069 0.000361151 5.09602e-05 3.9301e-05 0.000140024 0.000108432 3.9301e-05 2.94623e-05 0.000108432 8.16033e-05 0.000140024 0.000108432 0.000361151 0.000281471 0.000108432 8.16033e-05 0.000281471 0.000213138 0.000544496 0.000450069 0.00128921 0.00107584 0.000450069 0.000361151 0.00107584 0.000871428 0.00128921 0.00107584 0.00282733 0.00238978 0.00107584 0.000871428 0.00238978 0.00196025 0.000361151 0.000281471 0.000871428 0.000685402 0.000281471 0.000213138 0.000685402 0.000523595 0.000871428 0.000685402 0.00196025 0.00156082 0.000685402 0.000523595 0.00156082 0.00120652 0 0.000888191 0 0.00157185 0.000888191 0.00173113 0.00157185 0.00307501 0 0.00157185 0 0.00247211 0.00157185 0.00307501 0.00247211 0.00485831 0.00173113 0.0024868 0.00307501 0.00444424 0.0024868 0.00311944 0.00444424 0.00562122 0.00307501 0.00444424 0.00485831 0.0070743 0.00444424 0.00562122 0.0070743 0.00903962 0 0.00247211 0 0.00345804 0.00247211 0.00485831 0.00345804 0.00683007 0 0.00345804 0 0.00436517 0.00345804 0.00683007 0.00436517 0.00866013 0.00485831 0.0070743 0.00683007 0.0100281 0.0070743 0.00903962 0.0100281 0.0129612 0.00683007 0.0100281 0.00866013 0.0128106 0.0100281 0.0129612 0.0128106 0.0167345 0.00311944 0.00360217 0.00562122 0.00655811 0.00360217 0.0039189 0.00655811 0.00722098 0.00562122 0.00655811 0.00903962 0.0106811 0.00655811 0.00722098 0.0106811 0.0119372 0.0039189 0.00406538 0.00722098 0.00759258 0.00406538 0.00404919 0.00759258 0.00767402 0.00722098 0.00759258 0.0119372 0.0127636 0.00759258 0.00767402 0.0127636 0.0131383 0.00903962 0.0106811 0.0129612 0.0155364 0.0106811 0.0119372 0.0155364 0.0176623 0.0129612 0.0155364 0.0167345 0.0203385 0.0155364 0.0176623 0.0203385 0.0235173 0.0119372 0.0127636 0.0176623 0.0192553 0.0127636 0.0131383 0.0192553 0.0202493 0.0176623 0.0192553 0.0235173 0.0261557 0.0192553 0.0202493 0.0261557 0.0281371 0 0.00436517 0 0.00514122 0.00436517 0.00866013 0.00514122 0.0102246 0 0.00514122 0 0.00588222 0.00514122 0.0102246 0.00588222 0.0117016 0.00866013 0.0128106 0.0102246 0.015191 0.0128106 0.0167345 0.015191 0.0199777 0.0102246 0.015191 0.0117016 0.0173978 0.015191 0.0199777 0.0173978 0.0229151 0 0.00588222 0 0.00662926 0.00588222 0.0117016 0.00662926 0.0131959 0 0.00662926 0 0.00720519 0.00662926 0.0131959 0.00720519 0.014383 0.0117016 0.0173978 0.0131959 0.0196354 0.0173978 0.0229151 0.0196354 0.0258818 0.0131959 0.0196354 0.014383 0.0214951 0.0196354 0.0258818 0.0214951 0.0284836 0.0167345 0.0203385 0.0199777 0.024513 0.0203385 0.0235173 0.024513 0.0287098 0.0199777 0.024513 0.0229151 0.0282017 0.024513 0.0287098 0.0282017 0.0332046 0.0235173 0.0261557 0.0287098 0.0324589 0.0261557 0.0281371 0.0324589 0.0356259 0.0287098 0.0324589 0.0332046 0.037859 0.0324589 0.0356259 0.037859 0.0420728 0.0229151 0.0282017 0.0258818 0.0318724 0.0282017 0.0332046 0.0318724 0.0375545 0.0258818 0.0318724 0.0284836 0.0352685 0.0318724 0.0375545 0.0352685 0.0417556 0.0332046 0.037859 0.0375545 0.0428876 0.037859 0.0420728 0.0428876 0.0478356 0.0375545 0.0428876 0.0417556 0.0478542 0.0428876 0.0478356 0.0478542 0.0534997 0.00404919 0.00388846 0.00767402 0.00748493 0.00388846 0.00360971 0.00748493 0.0070616 0.00767402 0.00748493 0.0131383 0.0130656 0.00748493 0.0070616 0.0130656 0.0125782 0.00360971 0.00324475 0.0070616 0.00645337 0.00324475 0.00282733 0.00645337 0.00571748 0.0070616 0.00645337 0.0125782 0.0117346 0.00645337 0.00571748 0.0117346 0.010615 0.0131383 0.0130656 0.0202493 0.0206049 0.0130656 0.0125782 0.0206049 0.0203196 0.0202493 0.0206049 0.0281371 0.0293562 0.0206049 0.0203196 0.0293562 0.0297368 0.0125782 0.0117346 0.0203196 0.0194325 0.0117346 0.010615 0.0194325 0.0180248 0.0203196 0.0194325 0.0297368 0.0292493 0.0194325 0.0180248 0.0292493 0.0279249 0.00282733 0.00238978 0.00571748 0.00491323 0.00238978 0.00196025 0.00491323 0.00409618 0.00571748 0.00491323 0.010615 0.00931235 0.00491323 0.00409618 0.00931235 0.00792305 0.00196025 0.00156082 0.00409618 0.00331348 0.00156082 0.00120652 0.00331348 0.00260066 0.00409618 0.00331348 0.00792305 0.00653695 0.00331348 0.00260066 0.00653695 0.00522924 0.010615 0.00931235 0.0180248 0.0162133 0.00931235 0.00792305 0.0162133 0.0141386 0.0180248 0.0162133 0.0279249 0.0258605 0.0162133 0.0141386 0.0258605 0.0232127 0.00792305 0.00653695 0.0141386 0.0119484 0.00653695 0.00522924 0.0119484 0.00978191 0.0141386 0.0119484 0.0232127 0.0201805 0.0119484 0.00978191 0.0201805 0.0169808 0.0281371 0.0293562 0.0356259 0.0380565 0.0293562 0.0297368 0.0380565 0.0395923 0.0356259 0.0380565 0.0420728 0.0457124 0.0380565 0.0395923 0.0457124 0.0485971 0.0297368 0.0292493 0.0395923 0.0400967 0.0292493 0.0279249 0.0400967 0.0394863 0.0395923 0.0400967 0.0485971 0.0505121 0.0400967 0.0394863 0.0505121 0.0512408 0.0420728 0.0457124 0.0478356 0.052345 0.0457124 0.0485971 0.052345 0.0563137 0.0478356 0.052345 0.0534997 0.0586624 0.052345 0.0563137 0.0586624 0.0633305 0.0485971 0.0505121 0.0563137 0.0595642 0.0505121 0.0512408 0.0595642 0.0618405 0.0563137 0.0595642 0.0633305 0.0674628 0.0595642 0.0618405 0.0674628 0.0709286 0.0279249 0.0258605 0.0394863 0.0377593 0.0258605 0.0232127 0.0377593 0.0350121 0.0394863 0.0377593 0.0512408 0.0506149 0.0377593 0.0350121 0.0506149 0.0485655 0.0232127 0.0201805 0.0350121 0.0314373 0.0201805 0.0169808 0.0314373 0.0273017 0.0350121 0.0314373 0.0485655 0.0451612 0.0314373 0.0273017 0.0451612 0.0406177 0.0512408 0.0506149 0.0618405 0.06284 0.0506149 0.0485655 0.06284 0.0622818 0.0618405 0.06284 0.0709286 0.0734684 0.06284 0.0622818 0.0734684 0.0747087 0.0485655 0.0451612 0.0622818 0.0599912 0.0451612 0.0406177 0.0599912 0.0559732 0.0622818 0.0599912 0.0747087 0.0742424 0.0599912 0.0559732 0.0742424 0.0717545 0 0 9.18503e-07 6.68778e-07 0 0 6.68778e-07 4.7398e-07 9.18503e-07 6.68778e-07 3.23247e-06 2.35188e-06 6.68778e-07 4.7398e-07 2.35188e-06 1.6652e-06 0 0 4.7398e-07 3.27099e-07 0 0 3.27099e-07 2.19889e-07 4.7398e-07 3.27099e-07 1.6652e-06 1.14764e-06 3.27099e-07 2.19889e-07 1.14764e-06 7.7007e-07 3.23247e-06 2.35188e-06 1.00525e-05 7.31536e-06 2.35188e-06 1.6652e-06 7.31536e-06 5.1792e-06 1.00525e-05 7.31536e-06 2.94623e-05 2.1477e-05 7.31536e-06 5.1792e-06 2.1477e-05 1.52275e-05 1.6652e-06 1.14764e-06 5.1792e-06 3.56816e-06 1.14764e-06 7.7007e-07 3.56816e-06 2.39245e-06 5.1792e-06 3.56816e-06 1.52275e-05 1.05029e-05 3.56816e-06 2.39245e-06 1.05029e-05 7.04792e-06 0 0 2.19889e-07 1.44038e-07 0 0 1.44038e-07 9.19506e-08 2.19889e-07 1.44038e-07 7.7007e-07 5.03182e-07 1.44038e-07 9.19506e-08 5.03182e-07 3.20214e-07 0 0 9.19506e-08 5.71806e-08 0 0 5.71806e-08 3.45807e-08 9.19506e-08 5.71806e-08 3.20214e-07 1.98437e-07 5.71806e-08 3.45807e-08 1.98437e-07 1.19668e-07 7.7007e-07 5.03182e-07 2.39245e-06 1.56135e-06 5.03182e-07 3.20214e-07 1.56135e-06 9.91835e-07 2.39245e-06 1.56135e-06 7.04792e-06 4.60155e-06 1.56135e-06 9.91835e-07 4.60155e-06 2.9231e-06 3.20214e-07 1.98437e-07 9.91835e-07 6.13275e-07 1.98437e-07 1.19668e-07 6.13275e-07 3.69031e-07 9.91835e-07 6.13275e-07 2.9231e-06 1.80663e-06 6.13275e-07 3.69031e-07 1.80663e-06 1.08628e-06 2.94623e-05 2.1477e-05 8.16033e-05 5.97012e-05 2.1477e-05 1.52275e-05 5.97012e-05 4.24689e-05 8.16033e-05 5.97012e-05 0.000213138 0.000156845 5.97012e-05 4.24689e-05 0.000156845 0.000112183 1.52275e-05 1.05029e-05 4.24689e-05 2.93785e-05 1.05029e-05 7.04792e-06 2.93785e-05 1.97648e-05 4.24689e-05 2.93785e-05 0.000112183 7.79939e-05 2.93785e-05 1.97648e-05 7.79939e-05 5.27099e-05 0.000213138 0.000156845 0.000523595 0.00038855 0.000156845 0.000112183 0.00038855 0.000280113 0.000523595 0.00038855 0.00120652 0.000905498 0.00038855 0.000280113 0.000905498 0.000659795 0.000112183 7.79939e-05 0.000280113 0.000196184 7.79939e-05 5.27099e-05 0.000196184 0.000133486 0.000280113 0.000196184 0.000659795 0.000466748 0.000196184 0.000133486 0.000466748 0.000320539 7.04792e-06 4.60155e-06 1.97648e-05 1.29321e-05 4.60155e-06 2.9231e-06 1.29321e-05 8.22906e-06 1.97648e-05 1.29321e-05 5.27099e-05 3.46272e-05 1.29321e-05 8.22906e-06 3.46272e-05 2.21117e-05 2.9231e-06 1.80663e-06 8.22906e-06 5.09235e-06 1.80663e-06 1.08628e-06 5.09235e-06 3.06432e-06 8.22906e-06 5.09235e-06 2.21117e-05 1.37238e-05 5.09235e-06 3.06432e-06 1.37238e-05 8.2782e-06 5.27099e-05 3.46272e-05 0.000133486 8.8233e-05 3.46272e-05 2.21117e-05 8.8233e-05 5.66526e-05 0.000133486 8.8233e-05 0.000320539 0.000213682 8.8233e-05 5.66526e-05 0.000213682 0.000138262 2.21117e-05 1.37238e-05 5.66526e-05 3.53319e-05 1.37238e-05 8.2782e-06 3.53319e-05 2.14007e-05 5.66526e-05 3.53319e-05 0.000138262 8.68241e-05 3.53319e-05 2.14007e-05 8.68241e-05 5.29094e-05 0 0 3.45807e-08 2.02533e-08 0 0 2.02533e-08 1.13844e-08 3.45807e-08 2.02533e-08 1.19668e-07 7.00939e-08 2.02533e-08 1.13844e-08 7.00939e-08 3.97019e-08 0 0 1.13844e-08 6.02694e-09 0 0 6.02694e-09 2.88166e-09 1.13844e-08 6.02694e-09 3.97019e-08 2.1543e-08 6.02694e-09 2.88166e-09 2.1543e-08 1.09802e-08 1.19668e-07 7.00939e-08 3.69031e-07 2.15969e-07 7.00939e-08 3.97019e-08 2.15969e-07 1.22729e-07 3.69031e-07 2.15969e-07 1.08628e-06 6.35301e-07 2.15969e-07 1.22729e-07 6.35301e-07 3.61215e-07 3.97019e-08 2.1543e-08 1.22729e-07 6.74747e-08 2.1543e-08 1.09802e-08 6.74747e-08 3.56083e-08 1.22729e-07 6.74747e-08 3.61215e-07 1.99422e-07 6.74747e-08 3.56083e-08 1.99422e-07 1.06604e-07 0 0 2.88166e-09 1.10589e-09 0 0 1.10589e-09 1.63618e-10 2.88166e-09 1.10589e-09 1.09802e-08 5.02592e-09 1.10589e-09 1.63618e-10 5.02592e-09 1.81032e-09 0 0 1.63618e-10 -2.82769e-10 0 0 -2.82769e-10 -4.44996e-10 1.63618e-10 -2.82769e-10 1.81032e-09 1.88566e-10 -2.82769e-10 -4.44996e-10 1.88566e-10 -5.30337e-10 1.09802e-08 5.02592e-09 3.56083e-08 1.77379e-08 5.02592e-09 1.81032e-09 1.77379e-08 8.03013e-09 3.56083e-08 1.77379e-08 1.06604e-07 5.48326e-08 1.77379e-08 8.03013e-09 5.48326e-08 2.67704e-08 1.81032e-09 1.88566e-10 8.03013e-09 2.9729e-09 1.88566e-10 -5.30337e-10 2.9729e-09 5.04492e-10 8.03013e-09 2.9729e-09 2.67704e-08 1.20304e-08 2.9729e-09 5.04492e-10 1.20304e-08 4.5895e-09 1.08628e-06 6.35301e-07 3.06432e-06 1.79287e-06 6.35301e-07 3.61215e-07 1.79287e-06 1.01971e-06 3.06432e-06 1.79287e-06 8.2782e-06 4.85237e-06 1.79287e-06 1.01971e-06 4.85237e-06 2.76354e-06 3.61215e-07 1.99422e-07 1.01971e-06 5.63572e-07 1.99422e-07 1.06604e-07 5.63572e-07 3.02384e-07 1.01971e-06 5.63572e-07 2.76354e-06 1.52893e-06 5.63572e-07 3.02384e-07 1.52893e-06 8.21442e-07 8.2782e-06 4.85237e-06 2.14007e-05 1.25878e-05 4.85237e-06 2.76354e-06 1.25878e-05 7.189e-06 2.14007e-05 1.25878e-05 5.29094e-05 3.12843e-05 1.25878e-05 7.189e-06 3.12843e-05 1.79458e-05 2.76354e-06 1.52893e-06 7.189e-06 3.98585e-06 1.52893e-06 8.21442e-07 3.98585e-06 2.14497e-06 7.189e-06 3.98585e-06 1.79458e-05 9.98572e-06 3.98585e-06 2.14497e-06 9.98572e-06 5.38897e-06 1.06604e-07 5.48326e-08 3.02384e-07 1.57161e-07 5.48326e-08 2.67704e-08 1.57161e-07 7.87218e-08 3.02384e-07 1.57161e-07 8.21442e-07 4.28261e-07 1.57161e-07 7.87218e-08 4.28261e-07 2.16269e-07 2.67704e-08 1.20304e-08 7.87218e-08 3.75712e-08 1.20304e-08 4.5895e-09 3.75712e-08 1.6647e-08 7.87218e-08 3.75712e-08 2.16269e-07 1.05329e-07 3.75712e-08 1.6647e-08 1.05329e-07 4.89777e-08 8.21442e-07 4.28261e-07 2.14497e-06 1.12006e-06 4.28261e-07 2.16269e-07 1.12006e-06 5.67162e-07 2.14497e-06 1.12006e-06 5.38897e-06 2.82008e-06 1.12006e-06 5.67162e-07 2.82008e-06 1.43064e-06 2.16269e-07 1.05329e-07 5.67162e-07 2.7806e-07 1.05329e-07 4.89777e-08 2.7806e-07 1.31472e-07 5.67162e-07 2.7806e-07 1.43064e-06 7.03189e-07 2.7806e-07 1.31472e-07 7.03189e-07 3.34395e-07 0.00120652 0.000905498 0.00260066 0.00198041 0.000905498 0.000659795 0.00198041 0.00146305 0.00260066 0.00198041 0.00522924 0.0040551 0.00198041 0.00146305 0.0040551 0.00304777 0.000659795 0.000466748 0.00146305 0.00104846 0.000466748 0.000320539 0.00104846 0.000728748 0.00146305 0.00104846 0.00304777 0.00221973 0.00104846 0.000728748 0.00221973 0.00156632 0.00522924 0.0040551 0.00978191 0.00775521 0.0040551 0.00304777 0.00775521 0.00595224 0.00978191 0.00775521 0.0169808 0.0138213 0.00775521 0.00595224 0.0138213 0.0108764 0.00304777 0.00221973 0.00595224 0.00442144 0.00221973 0.00156632 0.00442144 0.0031779 0.00595224 0.00442144 0.0108764 0.00827154 0.00442144 0.0031779 0.00827154 0.00607737 0.000320539 0.000213682 0.000728748 0.000491233 0.000213682 0.000138262 0.000491233 0.00032109 0.000728748 0.000491233 0.00156632 0.00107066 0.000491233 0.00032109 0.00107066 0.000708844 0.000138262 8.68241e-05 0.00032109 0.00020349 8.68241e-05 5.29094e-05 0.00020349 0.000125021 0.00032109 0.00020349 0.000708844 0.000454484 0.00020349 0.000125021 0.000454484 0.000282163 0.00156632 0.00107066 0.0031779 0.00220964 0.00107066 0.000708844 0.00220964 0.00148605 0.0031779 0.00220964 0.00607737 0.00431282 0.00220964 0.00148605 0.00431282 0.00295555 0.000708844 0.000454484 0.00148605 0.00096653 0.000454484 0.000282163 0.00096653 0.000607874 0.00148605 0.00096653 0.00295555 0.00195562 0.00096653 0.000607874 0.00195562 0.00124925 0.0169808 0.0138213 0.0273017 0.02291 0.0138213 0.0108764 0.02291 0.0185611 0.0273017 0.02291 0.0406177 0.0352741 0.02291 0.0185611 0.0352741 0.0295404 0.0108764 0.00827154 0.0185611 0.0145097 0.00827154 0.00607737 0.0145097 0.0109393 0.0185611 0.0145097 0.0295404 0.0238323 0.0145097 0.0109393 0.0238323 0.0185095 0.0406177 0.0352741 0.0559732 0.0504451 0.0352741 0.0295404 0.0504451 0.0438162 0.0559732 0.0504451 0.0717545 0.0671471 0.0504451 0.0438162 0.0671471 0.0606129 0.0295404 0.0238323 0.0438162 0.0366183 0.0238323 0.0185095 0.0366183 0.0294095 0.0438162 0.0366183 0.0606129 0.0526267 0.0366183 0.0294095 0.0526267 0.0438571 0.00607737 0.00431282 0.0109393 0.00795146 0.00431282 0.00295555 0.00795146 0.005571 0.0109393 0.00795146 0.0185095 0.013832 0.00795146 0.005571 0.013832 0.00994269 0.00295555 0.00195562 0.005571 0.00376165 0.00195562 0.00124925 0.00376165 0.00244761 0.005571 0.00376165 0.00994269 0.0068733 0.00376165 0.00244761 0.0068733 0.00456911 0.0185095 0.013832 0.0294095 0.0226805 0.013832 0.00994269 0.0226805 0.016787 0.0294095 0.0226805 0.0438571 0.0350306 0.0226805 0.016787 0.0350306 0.0267942 0.00994269 0.0068733 0.016787 0.0119215 0.0068733 0.00456911 0.0119215 0.00812219 0.016787 0.0119215 0.0267942 0.0196157 0.0119215 0.00812219 0.0196157 0.0137418 5.29094e-05 3.12843e-05 0.000125021 7.44548e-05 3.12843e-05 1.79458e-05 7.44548e-05 4.29754e-05 0.000125021 7.44548e-05 0.000282163 0.000169608 7.44548e-05 4.29754e-05 0.000169608 9.86976e-05 1.79458e-05 9.98572e-06 4.29754e-05 2.40386e-05 9.98572e-06 5.38897e-06 2.40386e-05 1.30286e-05 4.29754e-05 2.40386e-05 9.86976e-05 5.5595e-05 2.40386e-05 1.30286e-05 5.5595e-05 3.03101e-05 0.000282163 0.000169608 0.000607874 0.000369643 0.000169608 9.86976e-05 0.000369643 0.000217311 0.000607874 0.000369643 0.00124925 0.000770371 0.000369643 0.000217311 0.000770371 0.000458574 9.86976e-05 5.5595e-05 0.000217311 0.000123504 5.5595e-05 3.03101e-05 0.000123504 6.78489e-05 0.000217311 0.000123504 0.000458574 0.000263487 0.000123504 6.78489e-05 0.0002