<?xml version="1.0" ?> 
<!-- 
# vtk DataFile Version 3.0
#This file was generated by the deal.II library on 21:44:49 at 2021/4/29
-->
<VTKFile type="UnstructuredGrid" version="0.1" byte_order="LittleEndian">
<UnstructuredGrid>
<Piece NumberOfPoints="65536" NumberOfCells="16384" >
  <Points>
    <DataArray type="Float32" NumberOfComponents="3" format="ascii">
-1 -1 0
-0.984375 -1 0
-1 -0.984375 0
-0.984375 -0.984375 0
-0.984375 -1 0
-0.96875 -1 0
-0.984375 -0.984375 0
-0.96875 -0.984375 0
-1 -0.984375 0
-0.984375 -0.984375 0
-1 -0.96875 0
-0.984375 -0.96875 0
-0.984375 -0.984375 0
-0.96875 -0.984375 0
-0.984375 -0.96875 0
-0.96875 -0.96875 0
-0.96875 -1 0
-0.953125 -1 0
-0.96875 -0.984375 0
-0.953125 -0.984375 0
-0.953125 -1 0
-0.9375 -1 0
-0.953125 -0.984375 0
-0.9375 -0.984375 0
-0.96875 -0.984375 0
-0.953125 -0.984375 0
-0.96875 -0.96875 0
-0.953125 -0.96875 0
-0.953125 -0.984375 0
-0.9375 -0.984375 0
-0.953125 -0.96875 0
-0.9375 -0.96875 0
-1 -0.96875 0
-0.984375 -0.96875 0
-1 -0.953125 0
-0.984375 -0.953125 0
-0.984375 -0.96875 0
-0.96875 -0.96875 0
-0.984375 -0.953125 0
-0.96875 -0.953125 0
-1 -0.953125 0
-0.984375 -0.953125 0
-1 -0.9375 0
-0.984375 -0.9375 0
-0.984375 -0.953125 0
-0.96875 -0.953125 0
-0.984375 -0.9375 0
-0.96875 -0.9375 0
-0.96875 -0.96875 0
-0.953125 -0.96875 0
-0.96875 -0.953125 0
-0.953125 -0.953125 0
-0.953125 -0.96875 0
-0.9375 -0.96875 0
-0.953125 -0.953125 0
-0.9375 -0.953125 0
-0.96875 -0.953125 0
-0.953125 -0.953125 0
-0.96875 -0.9375 0
-0.953125 -0.9375 0
-0.953125 -0.953125 0
-0.9375 -0.953125 0
-0.953125 -0.9375 0
-0.9375 -0.9375 0
-0.9375 -1 0
-0.921875 -1 0
-0.9375 -0.984375 0
-0.921875 -0.984375 0
-0.921875 -1 0
-0.90625 -1 0
-0.921875 -0.984375 0
-0.90625 -0.984375 0
-0.9375 -0.984375 0
-0.921875 -0.984375 0
-0.9375 -0.96875 0
-0.921875 -0.96875 0
-0.921875 -0.984375 0
-0.90625 -0.984375 0
-0.921875 -0.96875 0
-0.90625 -0.96875 0
-0.90625 -1 0
-0.890625 -1 0
-0.90625 -0.984375 0
-0.890625 -0.984375 0
-0.890625 -1 0
-0.875 -1 0
-0.890625 -0.984375 0
-0.875 -0.984375 0
-0.90625 -0.984375 0
-0.890625 -0.984375 0
-0.90625 -0.96875 0
-0.890625 -0.96875 0
-0.890625 -0.984375 0
-0.875 -0.984375 0
-0.890625 -0.96875 0
-0.875 -0.96875 0
-0.9375 -0.96875 0
-0.921875 -0.96875 0
-0.9375 -0.953125 0
-0.921875 -0.953125 0
-0.921875 -0.96875 0
-0.90625 -0.96875 0
-0.921875 -0.953125 0
-0.90625 -0.953125 0
-0.9375 -0.953125 0
-0.921875 -0.953125 0
-0.9375 -0.9375 0
-0.921875 -0.9375 0
-0.921875 -0.953125 0
-0.90625 -0.953125 0
-0.921875 -0.9375 0
-0.90625 -0.9375 0
-0.90625 -0.96875 0
-0.890625 -0.96875 0
-0.90625 -0.953125 0
-0.890625 -0.953125 0
-0.890625 -0.96875 0
-0.875 -0.96875 0
-0.890625 -0.953125 0
-0.875 -0.953125 0
-0.90625 -0.953125 0
-0.890625 -0.953125 0
-0.90625 -0.9375 0
-0.890625 -0.9375 0
-0.890625 -0.953125 0
-0.875 -0.953125 0
-0.890625 -0.9375 0
-0.875 -0.9375 0
-1 -0.9375 0
-0.984375 -0.9375 0
-1 -0.921875 0
-0.984375 -0.921875 0
-0.984375 -0.9375 0
-0.96875 -0.9375 0
-0.984375 -0.921875 0
-0.96875 -0.921875 0
-1 -0.921875 0
-0.984375 -0.921875 0
-1 -0.90625 0
-0.984375 -0.90625 0
-0.984375 -0.921875 0
-0.96875 -0.921875 0
-0.984375 -0.90625 0
-0.96875 -0.90625 0
-0.96875 -0.9375 0
-0.953125 -0.9375 0
-0.96875 -0.921875 0
-0.953125 -0.921875 0
-0.953125 -0.9375 0
-0.9375 -0.9375 0
-0.953125 -0.921875 0
-0.9375 -0.921875 0
-0.96875 -0.921875 0
-0.953125 -0.921875 0
-0.96875 -0.90625 0
-0.953125 -0.90625 0
-0.953125 -0.921875 0
-0.9375 -0.921875 0
-0.953125 -0.90625 0
-0.9375 -0.90625 0
-1 -0.90625 0
-0.984375 -0.90625 0
-1 -0.890625 0
-0.984375 -0.890625 0
-0.984375 -0.90625 0
-0.96875 -0.90625 0
-0.984375 -0.890625 0
-0.96875 -0.890625 0
-1 -0.890625 0
-0.984375 -0.890625 0
-1 -0.875 0
-0.984375 -0.875 0
-0.984375 -0.890625 0
-0.96875 -0.890625 0
-0.984375 -0.875 0
-0.96875 -0.875 0
-0.96875 -0.90625 0
-0.953125 -0.90625 0
-0.96875 -0.890625 0
-0.953125 -0.890625 0
-0.953125 -0.90625 0
-0.9375 -0.90625 0
-0.953125 -0.890625 0
-0.9375 -0.890625 0
-0.96875 -0.890625 0
-0.953125 -0.890625 0
-0.96875 -0.875 0
-0.953125 -0.875 0
-0.953125 -0.890625 0
-0.9375 -0.890625 0
-0.953125 -0.875 0
-0.9375 -0.875 0
-0.9375 -0.9375 0
-0.921875 -0.9375 0
-0.9375 -0.921875 0
-0.921875 -0.921875 0
-0.921875 -0.9375 0
-0.90625 -0.9375 0
-0.921875 -0.921875 0
-0.90625 -0.921875 0
-0.9375 -0.921875 0
-0.921875 -0.921875 0
-0.9375 -0.90625 0
-0.921875 -0.90625 0
-0.921875 -0.921875 0
-0.90625 -0.921875 0
-0.921875 -0.90625 0
-0.90625 -0.90625 0
-0.90625 -0.9375 0
-0.890625 -0.9375 0
-0.90625 -0.921875 0
-0.890625 -0.921875 0
-0.890625 -0.9375 0
-0.875 -0.9375 0
-0.890625 -0.921875 0
-0.875 -0.921875 0
-0.90625 -0.921875 0
-0.890625 -0.921875 0
-0.90625 -0.90625 0
-0.890625 -0.90625 0
-0.890625 -0.921875 0
-0.875 -0.921875 0
-0.890625 -0.90625 0
-0.875 -0.90625 0
-0.9375 -0.90625 0
-0.921875 -0.90625 0
-0.9375 -0.890625 0
-0.921875 -0.890625 0
-0.921875 -0.90625 0
-0.90625 -0.90625 0
-0.921875 -0.890625 0
-0.90625 -0.890625 0
-0.9375 -0.890625 0
-0.921875 -0.890625 0
-0.9375 -0.875 0
-0.921875 -0.875 0
-0.921875 -0.890625 0
-0.90625 -0.890625 0
-0.921875 -0.875 0
-0.90625 -0.875 0
-0.90625 -0.90625 0
-0.890625 -0.90625 0
-0.90625 -0.890625 0
-0.890625 -0.890625 0
-0.890625 -0.90625 0
-0.875 -0.90625 0
-0.890625 -0.890625 0
-0.875 -0.890625 0
-0.90625 -0.890625 0
-0.890625 -0.890625 0
-0.90625 -0.875 0
-0.890625 -0.875 0
-0.890625 -0.890625 0
-0.875 -0.890625 0
-0.890625 -0.875 0
-0.875 -0.875 0
-0.875 -1 0
-0.859375 -1 0
-0.875 -0.984375 0
-0.859375 -0.984375 0
-0.859375 -1 0
-0.84375 -1 0
-0.859375 -0.984375 0
-0.84375 -0.984375 0
-0.875 -0.984375 0
-0.859375 -0.984375 0
-0.875 -0.96875 0
-0.859375 -0.96875 0
-0.859375 -0.984375 0
-0.84375 -0.984375 0
-0.859375 -0.96875 0
-0.84375 -0.96875 0
-0.84375 -1 0
-0.828125 -1 0
-0.84375 -0.984375 0
-0.828125 -0.984375 0
-0.828125 -1 0
-0.8125 -1 0
-0.828125 -0.984375 0
-0.8125 -0.984375 0
-0.84375 -0.984375 0
-0.828125 -0.984375 0
-0.84375 -0.96875 0
-0.828125 -0.96875 0
-0.828125 -0.984375 0
-0.8125 -0.984375 0
-0.828125 -0.96875 0
-0.8125 -0.96875 0
-0.875 -0.96875 0
-0.859375 -0.96875 0
-0.875 -0.953125 0
-0.859375 -0.953125 0
-0.859375 -0.96875 0
-0.84375 -0.96875 0
-0.859375 -0.953125 0
-0.84375 -0.953125 0
-0.875 -0.953125 0
-0.859375 -0.953125 0
-0.875 -0.9375 0
-0.859375 -0.9375 0
-0.859375 -0.953125 0
-0.84375 -0.953125 0
-0.859375 -0.9375 0
-0.84375 -0.9375 0
-0.84375 -0.96875 0
-0.828125 -0.96875 0
-0.84375 -0.953125 0
-0.828125 -0.953125 0
-0.828125 -0.96875 0
-0.8125 -0.96875 0
-0.828125 -0.953125 0
-0.8125 -0.953125 0
-0.84375 -0.953125 0
-0.828125 -0.953125 0
-0.84375 -0.9375 0
-0.828125 -0.9375 0
-0.828125 -0.953125 0
-0.8125 -0.953125 0
-0.828125 -0.9375 0
-0.8125 -0.9375 0
-0.8125 -1 0
-0.796875 -1 0
-0.8125 -0.984375 0
-0.796875 -0.984375 0
-0.796875 -1 0
-0.78125 -1 0
-0.796875 -0.984375 0
-0.78125 -0.984375 0
-0.8125 -0.984375 0
-0.796875 -0.984375 0
-0.8125 -0.96875 0
-0.796875 -0.96875 0
-0.796875 -0.984375 0
-0.78125 -0.984375 0
-0.796875 -0.96875 0
-0.78125 -0.96875 0
-0.78125 -1 0
-0.765625 -1 0
-0.78125 -0.984375 0
-0.765625 -0.984375 0
-0.765625 -1 0
-0.75 -1 0
-0.765625 -0.984375 0
-0.75 -0.984375 0
-0.78125 -0.984375 0
-0.765625 -0.984375 0
-0.78125 -0.96875 0
-0.765625 -0.96875 0
-0.765625 -0.984375 0
-0.75 -0.984375 0
-0.765625 -0.96875 0
-0.75 -0.96875 0
-0.8125 -0.96875 0
-0.796875 -0.96875 0
-0.8125 -0.953125 0
-0.796875 -0.953125 0
-0.796875 -0.96875 0
-0.78125 -0.96875 0
-0.796875 -0.953125 0
-0.78125 -0.953125 0
-0.8125 -0.953125 0
-0.796875 -0.953125 0
-0.8125 -0.9375 0
-0.796875 -0.9375 0
-0.796875 -0.953125 0
-0.78125 -0.953125 0
-0.796875 -0.9375 0
-0.78125 -0.9375 0
-0.78125 -0.96875 0
-0.765625 -0.96875 0
-0.78125 -0.953125 0
-0.765625 -0.953125 0
-0.765625 -0.96875 0
-0.75 -0.96875 0
-0.765625 -0.953125 0
-0.75 -0.953125 0
-0.78125 -0.953125 0
-0.765625 -0.953125 0
-0.78125 -0.9375 0
-0.765625 -0.9375 0
-0.765625 -0.953125 0
-0.75 -0.953125 0
-0.765625 -0.9375 0
-0.75 -0.9375 0
-0.875 -0.9375 0
-0.859375 -0.9375 0
-0.875 -0.921875 0
-0.859375 -0.921875 0
-0.859375 -0.9375 0
-0.84375 -0.9375 0
-0.859375 -0.921875 0
-0.84375 -0.921875 0
-0.875 -0.921875 0
-0.859375 -0.921875 0
-0.875 -0.90625 0
-0.859375 -0.90625 0
-0.859375 -0.921875 0
-0.84375 -0.921875 0
-0.859375 -0.90625 0
-0.84375 -0.90625 0
-0.84375 -0.9375 0
-0.828125 -0.9375 0
-0.84375 -0.921875 0
-0.828125 -0.921875 0
-0.828125 -0.9375 0
-0.8125 -0.9375 0
-0.828125 -0.921875 0
-0.8125 -0.921875 0
-0.84375 -0.921875 0
-0.828125 -0.921875 0
-0.84375 -0.90625 0
-0.828125 -0.90625 0
-0.828125 -0.921875 0
-0.8125 -0.921875 0
-0.828125 -0.90625 0
-0.8125 -0.90625 0
-0.875 -0.90625 0
-0.859375 -0.90625 0
-0.875 -0.890625 0
-0.859375 -0.890625 0
-0.859375 -0.90625 0
-0.84375 -0.90625 0
-0.859375 -0.890625 0
-0.84375 -0.890625 0
-0.875 -0.890625 0
-0.859375 -0.890625 0
-0.875 -0.875 0
-0.859375 -0.875 0
-0.859375 -0.890625 0
-0.84375 -0.890625 0
-0.859375 -0.875 0
-0.84375 -0.875 0
-0.84375 -0.90625 0
-0.828125 -0.90625 0
-0.84375 -0.890625 0
-0.828125 -0.890625 0
-0.828125 -0.90625 0
-0.8125 -0.90625 0
-0.828125 -0.890625 0
-0.8125 -0.890625 0
-0.84375 -0.890625 0
-0.828125 -0.890625 0
-0.84375 -0.875 0
-0.828125 -0.875 0
-0.828125 -0.890625 0
-0.8125 -0.890625 0
-0.828125 -0.875 0
-0.8125 -0.875 0
-0.8125 -0.9375 0
-0.796875 -0.9375 0
-0.8125 -0.921875 0
-0.796875 -0.921875 0
-0.796875 -0.9375 0
-0.78125 -0.9375 0
-0.796875 -0.921875 0
-0.78125 -0.921875 0
-0.8125 -0.921875 0
-0.796875 -0.921875 0
-0.8125 -0.90625 0
-0.796875 -0.90625 0
-0.796875 -0.921875 0
-0.78125 -0.921875 0
-0.796875 -0.90625 0
-0.78125 -0.90625 0
-0.78125 -0.9375 0
-0.765625 -0.9375 0
-0.78125 -0.921875 0
-0.765625 -0.921875 0
-0.765625 -0.9375 0
-0.75 -0.9375 0
-0.765625 -0.921875 0
-0.75 -0.921875 0
-0.78125 -0.921875 0
-0.765625 -0.921875 0
-0.78125 -0.90625 0
-0.765625 -0.90625 0
-0.765625 -0.921875 0
-0.75 -0.921875 0
-0.765625 -0.90625 0
-0.75 -0.90625 0
-0.8125 -0.90625 0
-0.796875 -0.90625 0
-0.8125 -0.890625 0
-0.796875 -0.890625 0
-0.796875 -0.90625 0
[...]
  <PointData Scalars="scalars">
    <DataArray type="Float32" Name="U" format="ascii">
0 0 0 -7.46975e-05 0 0 -7.46975e-05 -0.000149752 0 -7.46975e-05 0 -0.000144063 -7.46975e-05 -0.000149752 -0.000144063 -0.000287872 0 0 -0.000149752 -0.00022564 0 0 -0.00022564 -0.000302691 -0.000149752 -0.00022564 -0.000287872 -0.000431116 -0.00022564 -0.000302691 -0.000431116 -0.000573507 0 -0.000144063 0 -0.000182878 -0.000144063 -0.000287872 -0.000182878 -0.000367065 0 -0.000182878 0 -0.000210941 -0.000182878 -0.000367065 -0.000210941 -0.000421257 -0.000287872 -0.000431116 -0.000367065 -0.000553464 -0.000431116 -0.000573507 -0.000553464 -0.000743426 -0.000367065 -0.000553464 -0.000421257 -0.000631287 -0.000553464 -0.000743426 -0.000631287 -0.000840229 0 0 -0.000302691 -0.000381422 0 0 -0.000381422 -0.000461686 -0.000302691 -0.000381422 -0.000573507 -0.000714907 -0.000381422 -0.000461686 -0.000714907 -0.000855869 0 0 -0.000461686 -0.00054339 0 0 -0.00054339 -0.000625298 -0.000461686 -0.00054339 -0.000855869 -0.000997573 -0.00054339 -0.000625298 -0.000997573 -0.00114227 -0.000573507 -0.000714907 -0.000743426 -0.000936648 -0.000714907 -0.000855869 -0.000936648 -0.00113298 -0.000743426 -0.000936648 -0.000840229 -0.00105075 -0.000936648 -0.00113298 -0.00105075 -0.00126379 -0.000855869 -0.000997573 -0.00113298 -0.00132914 -0.000997573 -0.00114227 -0.00132914 -0.00152261 -0.00113298 -0.00132914 -0.00126379 -0.00148663 -0.00132914 -0.00152261 -0.00148663 -0.00172238 0 -0.000210941 0 -0.000236187 -0.000210941 -0.000421257 -0.000236187 -0.000473994 0 -0.000236187 0 -0.000227387 -0.000236187 -0.000473994 -0.000227387 -0.000454173 -0.000421257 -0.000631287 -0.000473994 -0.000714233 -0.000631287 -0.000840229 -0.000714233 -0.000958243 -0.000473994 -0.000714233 -0.000454173 -0.000678632 -0.000714233 -0.000958243 -0.000678632 -0.000902199 0 -0.000227387 0 -0.000215214 -0.000227387 -0.000454173 -0.000215214 -0.000430083 0 -0.000215214 0 -0.000179688 -0.000215214 -0.000430083 -0.000179688 -0.000359719 -0.000454173 -0.000678632 -0.000430083 -0.000648435 -0.000678632 -0.000902199 -0.000648435 -0.000865104 -0.000430083 -0.000648435 -0.000359719 -0.000536029 -0.000648435 -0.000865104 -0.000536029 -0.000713665 -0.000840229 -0.00105075 -0.000958243 -0.0012042 -0.00105075 -0.00126379 -0.0012042 -0.00145114 -0.000958243 -0.0012042 -0.000902199 -0.00112363 -0.0012042 -0.00145114 -0.00112363 -0.00134801 -0.00126379 -0.00148663 -0.00145114 -0.00169184 -0.00148663 -0.00172238 -0.00169184 -0.00192309 -0.00145114 -0.00169184 -0.00134801 -0.0015771 -0.00169184 -0.00192309 -0.0015771 -0.00181926 -0.000902199 -0.00112363 -0.000865104 -0.00108729 -0.00112363 -0.00134801 -0.00108729 -0.00130361 -0.000865104 -0.00108729 -0.000713665 -0.000883495 -0.00108729 -0.00130361 -0.000883495 -0.00105669 -0.00134801 -0.0015771 -0.00130361 -0.00152346 -0.0015771 -0.00181926 -0.00152346 -0.00172888 -0.00130361 -0.00152346 -0.00105669 -0.00121738 -0.00152346 -0.00172888 -0.00121738 -0.00138481 0 0 -0.000625298 -0.000707108 0 0 -0.000707108 -0.00078842 -0.000625298 -0.000707108 -0.00114227 -0.001291 -0.000707108 -0.00078842 -0.001291 -0.00144305 0 0 -0.00078842 -0.000871969 0 0 -0.000871969 -0.000959557 -0.00078842 -0.000871969 -0.00144305 -0.00159171 -0.000871969 -0.000959557 -0.00159171 -0.00172937 -0.00114227 -0.001291 -0.00152261 -0.00170991 -0.001291 -0.00144305 -0.00170991 -0.00189416 -0.00152261 -0.00170991 -0.00172238 -0.00197895 -0.00170991 -0.00189416 -0.00197895 -0.00225034 -0.00144305 -0.00159171 -0.00189416 -0.00208441 -0.00159171 -0.00172937 -0.00208441 -0.00229714 -0.00189416 -0.00208441 -0.00225034 -0.00252834 -0.00208441 -0.00229714 -0.00252834 -0.00278567 0 0 -0.000959557 -0.00105179 0 0 -0.00105179 -0.00113841 -0.000959557 -0.00105179 -0.00172937 -0.00185057 -0.00105179 -0.00113841 -0.00185057 -0.00196928 0 0 -0.00113841 -0.00120318 0 0 -0.00120318 -0.00123033 -0.00113841 -0.00120318 -0.00196928 -0.0021135 -0.00120318 -0.00123033 -0.0021135 -0.00231539 -0.00172937 -0.00185057 -0.00229714 -0.00254331 -0.00185057 -0.00196928 -0.00254331 -0.00281245 -0.00229714 -0.00254331 -0.00278567 -0.00300782 -0.00254331 -0.00281245 -0.00300782 -0.00319184 -0.00196928 -0.0021135 -0.00281245 -0.00306685 -0.0021135 -0.00231539 -0.00306685 -0.00325824 -0.00281245 -0.00306685 -0.00319184 -0.00338 -0.00306685 -0.00325824 -0.00338 -0.00362094 -0.00172238 -0.00197895 -0.00192309 -0.00213596 -0.00197895 -0.00225034 -0.00213596 -0.00233767 -0.00192309 -0.00213596 -0.00181926 -0.00207673 -0.00213596 -0.00233767 -0.00207673 -0.00234998 -0.00225034 -0.00252834 -0.00233767 -0.00253443 -0.00252834 -0.00278567 -0.00253443 -0.00275855 -0.00233767 -0.00253443 -0.00234998 -0.00262917 -0.00253443 -0.00275855 -0.00262917 -0.00289329 -0.00181926 -0.00207673 -0.00172888 -0.00193317 -0.00207673 -0.00234998 -0.00193317 -0.0021175 -0.00172888 -0.00193317 -0.00138481 -0.00153333 -0.00193317 -0.0021175 -0.00153333 -0.00169276 -0.00234998 -0.00262917 -0.0021175 -0.00230507 -0.00262917 -0.00289329 -0.00230507 -0.00248272 -0.0021175 -0.00230507 -0.00169276 -0.00182625 -0.00230507 -0.00248272 -0.00182625 -0.00198071 -0.00278567 -0.00300782 -0.00275855 -0.00302275 -0.00300782 -0.00319184 -0.00302275 -0.00334299 -0.00275855 -0.00302275 -0.00289329 -0.00312834 -0.00302275 -0.00334299 -0.00312834 -0.00331938 -0.00319184 -0.00338 -0.00334299 -0.0036746 -0.00338 -0.00362094 -0.0036746 -0.00398361 -0.00334299 -0.0036746 -0.00331938 -0.00349787 -0.0036746 -0.00398361 -0.00349787 -0.00367583 -0.00289329 -0.00312834 -0.00248272 -0.00267647 -0.00312834 -0.00331938 -0.00267647 -0.00286829 -0.00248272 -0.00267647 -0.00198071 -0.00211112 -0.00267647 -0.00286829 -0.00211112 -0.00228107 -0.00331938 -0.00349787 -0.00286829 -0.00306417 -0.00349787 -0.00367583 -0.00306417 -0.00324662 -0.00286829 -0.00306417 -0.00228107 -0.00242509 -0.00306417 -0.00324662 -0.00242509 -0.00259531 0 -0.000179688 0 -0.000132542 -0.000179688 -0.000359719 -0.000132542 -0.000264852 0 -0.000132542 0 -9.2192e-05 -0.000132542 -0.000264852 -9.2192e-05 -0.000180312 -0.000359719 -0.000536029 -0.000264852 -0.00039346 -0.000536029 -0.000713665 -0.00039346 -0.000521283 -0.000264852 -0.00039346 -0.000180312 -0.000276594 -0.00039346 -0.000521283 -0.000276594 -0.000360468 0 -9.2192e-05 0 -2.77291e-05 -9.2192e-05 -0.000180312 -2.77291e-05 -5.8367e-05 0 -2.77291e-05 0 6.74131e-05 -2.77291e-05 -5.8367e-05 6.74131e-05 0.000132911 -0.000180312 -0.000276594 -5.8367e-05 -7.6007e-05 -0.000276594 -0.000360468 -7.6007e-05 -0.00010297 -5.8367e-05 -7.6007e-05 0.000132911 0.000200234 -7.6007e-05 -0.00010297 0.000200234 0.000262755 -0.000713665 -0.000883495 -0.000521283 -0.000643242 -0.000883495 -0.00105669 -0.000643242 -0.000764233 -0.000521283 -0.000643242 -0.000360468 -0.000459655 -0.000643242 -0.000764233 -0.000459655 -0.000536131 -0.00105669 -0.00121738 -0.000764233 -0.000881723 -0.00121738 -0.00138481 -0.000881723 -0.000999784 -0.000764233 -0.000881723 -0.000536131 -0.000629973 -0.000881723 -0.000999784 -0.000629973 -0.000685182 -0.000360468 -0.000459655 -0.00010297 -0.00010259 -0.000459655 -0.000536131 -0.00010259 -0.000121778 -0.00010297 -0.00010259 0.000262755 0.000326151 -0.00010259 -0.000121778 0.000326151 0.00038726 -0.000536131 -0.000629973 -0.000121778 -0.000100711 -0.000629973 -0.000685182 -0.000100711 -0.000119933 -0.000121778 -0.000100711 0.00038726 0.000446777 -0.000100711 -0.000119933 0.000446777 0.000521444 0 6.74131e-05 0 0.000169176 6.74131e-05 0.000132911 0.000169176 0.000350455 0 0.000169176 0 0.000308751 0.000169176 0.000350455 0.000308751 0.000605923 0.000132911 0.000200234 0.000350455 0.000512544 0.000200234 0.000262755 0.000512544 0.000711013 0.000350455 0.000512544 0.000605923 0.000926178 0.000512544 0.000711013 0.000926178 0.00120974 0 0.000308751 0 0.000435169 0.000308751 0.000605923 0.000435169 0.000868356 0 0.000435169 0 0.000552161 0.000435169 0.000868356 0.000552161 0.00112246 0.000605923 0.000926178 0.000868356 0.00130904 0.000926178 0.00120974 0.00130904 0.00174649 0.000868356 0.00130904 0.00112246 0.00165545 0.00130904 0.00174649 0.00165545 0.00224222 0.000262755 0.000326151 0.000711013 0.00087249 0.000326151 0.00038726 0.00087249 0.00109204 0.000711013 0.00087249 0.00120974 0.00154266 0.00087249 0.00109204 0.00154266 0.00181035 0.00038726 0.000446777 0.00109204 0.00125637 0.000446777 0.000521444 0.00125637 0.00148927 0.00109204 0.00125637 0.00181035 0.00216275 0.00125637 0.00148927 0.00216275 0.0024214 0.00120974 0.00154266 0.00174649 0.00219285 0.00154266 0.00181035 0.00219285 0.00264151 0.00174649 0.00219285 0.00224222 0.00275727 0.00219285 0.00264151 0.00275727 0.00335994 0.00181035 0.00216275 0.00264151 0.00308534 0.00216275 0.0024214 0.00308534 0.00354627 0.00264151 0.00308534 0.00335994 0.00386523 0.00308534 0.00354627 0.00386523 0.00448652 -0.00138481 -0.00153333 -0.000999784 -0.00112359 -0.00153333 -0.00169276 -0.00112359 -0.00124654 -0.000999784 -0.00112359 -0.000685182 -0.000750861 -0.00112359 -0.00124654 -0.000750861 -0.000762712 -0.00169276 -0.00182625 -0.00124654 -0.0013811 -0.00182625 -0.00198071 -0.0013811 -0.00148886 -0.00124654 -0.0013811 -0.000762712 -0.000783859 -0.0013811 -0.00148886 -0.000783859 -0.000768671 -0.000685182 -0.000750861 -0.000119933 -9.09267e-05 -0.000750861 -0.000762712 -9.09267e-05 -0.000129567 -0.000119933 -9.09267e-05 0.000521444 0.000592268 -9.09267e-05 -0.000129567 0.000592268 0.000711653 -0.000762712 -0.000783859 -0.000129567 -9.98933e-05 -0.000783859 -0.000768671 -9.98933e-05 -0.000138303 -0.000129567 -9.98933e-05 0.000711653 0.000805023 -9.98933e-05 -0.000138303 0.000805023 0.000968864 -0.00198071 -0.00211112 -0.00148886 -0.00159361 -0.00211112 -0.00228107 -0.00159361 -0.00162598 -0.00148886 -0.00159361 -0.000768671 -0.000787951 -0.00159361 -0.00162598 -0.000787951 -0.000814709 -0.00228107 -0.00242509 -0.00162598 -0.00167069 -0.00242509 -0.00259531 -0.00167069 -0.00165913 -0.00162598 -0.00167069 -0.000814709 -0.000852 -0.00167069 -0.00165913 -0.000852 -0.000869717 -0.000768671 -0.000787951 -0.000138303 -5.35856e-05 -0.000787951 -0.000814709 -5.35856e-05 -1.78817e-05 -0.000138303 -5.35856e-05 0.000968864 0.00103711 -5.35856e-05 -1.78817e-05 0.00103711 0.00119901 -0.000814709 -0.000852 -1.78817e-05 0.000144982 -0.000852 -0.000869717 0.000144982 0.000200625 -1.78817e-05 0.000144982 0.00119901 0.00122596 0.000144982 0.000200625 0.00122596 0.00146644 0.000521444 0.000592268 0.00148927 0.00164762 0.000592268 0.000711653 0.00164762 0.00187108 0.00148927 0.00164762 0.0024214 0.00281292 0.00164762 0.00187108 0.00281292 0.00308035 0.000711653 0.000805023 0.00187108 0.0020224 0.000805023 0.000968864 0.0020224 0.00224172 0.00187108 0.0020224 0.00308035 0.00352272 0.0020224 0.00224172 0.00352272 0.00379065 0.0024214 0.00281292 0.00354627 0.00396567 0.00281292 0.00308035 0.00396567 0.00443673 0.00354627 0.00396567 0.00448652 0.00499924 0.00396567 0.00443673 0.00499924 0.00563572 0.00308035 0.00352272 0.00443673 0.00481476 0.00352272 0.00379065 0.00481476 0.00532025 0.00443673 0.00481476 0.00563572 0.00616756 0.00481476 0.00532025 0.00616756 0.00678955 0.000968864 0.00103711 0.00224172 0.00244691 0.00103711 0.00119901 0.00244691 0.00270872 0.00224172 0.00244691 0.00379065 0.00423876 0.00244691 0.00270872 0.00423876 0.00446558 0.00119901 0.00122596 0.00270872 0.00301541 0.00122596 0.00146644 0.00301541 0.00325465 0.00270872 0.00301541 0.00446558 0.00487237 0.00301541 0.00325465 0.00487237 0.00510534 0.00379065 0.00423876 0.00532025 0.005677 0.00423876 0.00446558 0.005677 0.00626215 0.00532025 0.005677 0.00678955 0.00734466 0.005677 0.00626215 0.00734466 0.00792328 0.00446558 0.00487237 0.00626215 0.00661454 0.00487237 0.00510534 0.00661454 0.00727025 0.00626215 0.00661454 0.00792328 0.00853975 0.00661454 0.00727025 0.00853975 0.00906314 0 0 -0.00123033 -0.00123271 0 0 -0.00123271 -0.00125467 -0.00123033 -0.00123271 -0.00231539 -0.0025596 -0.00123271 -0.00125467 -0.0025596 -0.00277765 0 0 -0.00125467 -0.00134856 0 0 -0.00134856 -0.00150951 -0.00125467 -0.00134856 -0.00277765 -0.00287865 -0.00134856 -0.00150951 -0.00287865 -0.00286764 -0.00231539 -0.0025596 -0.00325824 -0.00338602 -0.0025596 -0.00277765 -0.00338602 -0.00351357 -0.00325824 -0.00338602 -0.00362094 -0.00393822 -0.00338602 -0.00351357 -0.00393822 -0.00428042 -0.00277765 -0.00287865 -0.00351357 -0.00374175 -0.00287865 -0.00286764 -0.00374175 -0.00406781 -0.00351357 -0.00374175 -0.00428042 -0.00456158 -0.00374175 -0.00406781 -0.00456158 -0.00476862 0 0 -0.00150951 -0.00165673 0 0 -0.00165673 -0.00170437 -0.00150951 -0.00165673 -0.00286764 -0.00286632 -0.00165673 -0.00170437 -0.00286632 -0.00300919 0 0 -0.00170437 -0.00166311 0 0 -0.00166311 -0.0016365 -0.00170437 -0.00166311 -0.00300919 -0.00326018 -0.00166311 -0.0016365 -0.00326018 -0.00345397 -0.00286764 -0.00286632 -0.00406781 -0.00437632 -0.00286632 -0.00300919 -0.00437632 -0.00453048 -0.00406781 -0.00437632 -0.00476862 -0.00497867 -0.00437632 -0.00453048 -0.00497867 -0.00528516 -0.00300919 -0.00326018 -0.00453048 -0.0046028 -0.00326018 -0.00345397 -0.0046028 -0.00475772 -0.00453048 -0.0046028 -0.00528516 -0.00558074 -0.0046028 -0.00475772 -0.00558074 -0.00573461 -0.00362094 -0.00393822 -0.00398361 -0.00422168 -0.00393822 -0.00428042 -0.00422168 -0.00443171 -0.00398361 -0.00422168 -0.00367583 -0.00390005 -0.00422168 -0.00443171 -0.00390005 -0.00412372 -0.00428042 -0.00456158 -0.00443171 -0.00465141 -0.00456158 -0.00476862 -0.00465141 -0.00491153 -0.00443171 -0.00465141 -0.00412372 -0.00435661 -0.00465141 -0.00491153 -0.00435661 -0.00454038 -0.00367583 -0.00390005 -0.00324662 -0.0034121 -0.00390005 -0.00412372 -0.0034121 -0.00358122 -0.00324662 -0.0034121 -0.00259531 -0.0027052 -0.0034121 -0.00358122 -0.0027052 -0.00281294 -0.00412372 -0.00435661 -0.00358122 -0.00372901 -0.00435661 -0.00454038 -0.00372901 -0.00390281 -0.00358122 -0.00372901 -0.00281294 -0.00288605 -0.00372901 -0.00390281 -0.00288605 -0.00296595 -0.00476862 -0.00497867 -0.00491153 -0.00514625 -0.00497867 -0.00528516 -0.00514625 -0.00531489 -0.00491153 -0.00514625 -0.00454038 -0.00475071 -0.00514625 -0.00531489 -0.00475071 -0.00495321 -0.00528516 -0.00558074 -0.00531489 -0.00549237 -0.00558074 -0.00573461 -0.00549237 -0.00575786 -0.00531489 -0.00549237 -0.00495321 -0.0051683 -0.00549237 -0.00575786 -0.0051683 -0.00531981 -0.00454038 -0.00475071 -0.00390281 -0.00402907 -0.00475071 -0.00495321 -0.00402907 -0.00419654 -0.00390281 -0.00402907 -0.00296595 -0.00302366 -0.00402907 -0.00419654 -0.00302366 -0.00298982 -0.00495321 -0.0051683 -0.00419654 -0.00426072 -0.0051683 -0.00531981 -0.00426072 -0.00430972 -0.00419654 -0.00426072 -0.00298982 -0.00301745 -0.00426072 -0.00430972 -0.00301745 -0.00307255 0 0 -0.0016365 -0.00166885 0 0 -0.00166885 -0.00172748 -0.0016365 -0.00166885 -0.00345397 -0.00354243 -0.00166885 -0.00172748 -0.00354243 -0.00362742 0 0 -0.00172748 -0.0018052 0 0 -0.0018052 -0.00197494 -0.00172748 -0.0018052 -0.00362742 -0.00373195 -0.0018052 -0.00197494 -0.00373195 -0.00368436 -0.00345397 -0.00354243 -0.00475772 -0.00501006 -0.00354243 -0.00362742 -0.00501006 -0.00515389 -0.00475772 -0.00501006 -0.00573461 -0.00574379 -0.00501006 -0.00515389 -0.00574379 -0.00587927 -0.00362742 -0.00373195 -0.00515389 -0.00514372 -0.00373195 -0.00368436 -0.00514372 -0.00522431 -0.00515389 -0.00514372 -0.00587927 -0.00617421 -0.00514372 -0.00522431 -0.00617421 -0.00640859 0 0 -0.00197494 -0.00212626 0 0 -0.00212626 -0.00205707 -0.00197494 -0.00212626 -0.00368436 -0.00359616 -0.00212626 -0.00205707 -0.00359616 -0.00374893 0 0 -0.00205707 -0.00186907 0 0 -0.00186907 -0.00188465 -0.00205707 -0.00186907 -0.00374893 -0.00405244 -0.00186907 -0.00188465 -0.00405244 -0.0040556 -0.00368436 -0.00359616 -0.00522431 -0.00539621 -0.00359616 -0.00374893 -0.00539621 -0.00543607 -0.00522431 -0.00539621 -0.00640859 -0.00641278 -0.00539621 -0.00543607 -0.00641278 -0.00627314 -0.00374893 -0.00405244 -0.00543607 -0.00528998 -0.00405244 -0.0040556 -0.00528998 -0.00528629 -0.00543607 -0.00528998 -0.00627314 -0.00616037 -0.00528998 -0.00528629 -0.00616037 -0.00597683 -0.00573461 -0.00574379 -0.00575786 -0.00611393 -0.00574379 -0.00587927 -0.00611393 -0.00631281 -0.00575786 -0.00611393 -0.00531981 -0.00540764 -0.00611393 -0.00631281 -0.00540764 -0.00548352 -0.00587927 -0.00617421 -0.00631281 -0.00634486 -0.00617421 -0.00640859 -0.00634486 -0.00624102 -0.00631281 -0.00634486 -0.00548352 -0.00553255 -0.00634486 -0.00624102 -0.00553255 -0.00572857 -0.00531981 -0.00540764 -0.00430972 -0.00426327 -0.00540764 -0.00548352 -0.00426327 -0.00437041 -0.00430972 -0.00426327 -0.00307255 -0.00332139 -0.00426327 -0.00437041 -0.00332139 -0.00327074 -0.00548352 -0.00553255 -0.00437041 -0.00456596 -0.00553255 -0.00572857 -0.00456596 -0.0046283 -0.00437041 -0.00456596 -0.00327074 -0.00313352 -0.00456596 -0.0046283 -0.00313352 -0.00291274 -0.00640859 -0.00641278 -0.00624102 -0.00626646 -0.00641278 -0.00627314 -0.00626646 -0.0063979 -0.00624102 -0.00626646 -0.00572857 -0.00582105 -0.00626646 -0.0063979 -0.00582105 -0.00583549 -0.00627314 -0.00616037 -0.0063979 -0.00650339 -0.00616037 -0.00597683 -0.00650339 -0.00641228 -0.0063979 -0.00650339 -0.00583549 -0.00566137 -0.00650339 -0.00641228 -0.00566137 -0.00574429 -0.00572857 -0.00582105 -0.0046283 -0.00459673 -0.00582105 -0.00583549 -0.00459673 -0.00448246 -0.0046283 -0.00459673 -0.00291274 -0.00293246 -0.00459673 -0.00448246 -0.00293246 -0.00289456 -0.00583549 -0.00566137 -0.00448246 -0.00459159 -0.00566137 -0.00574429 -0.00459159 -0.00421523 -0.00448246 -0.00459159 -0.00289456 -0.00261762 -0.00459159 -0.00421523 -0.00261762 -0.00274049 -0.00259531 -0.0027052 -0.00165913 -0.00174156 -0.0027052 -0.00281294 -0.00174156 -0.00176574 -0.00165913 -0.00174156 -0.000869717 -0.000786066 -0.00174156 -0.00176574 -0.000786066 -0.000721378 -0.00281294 -0.00288605 -0.00176574 -0.00184279 -0.00288605 -0.00296595 -0.00184279 -0.00177684 -0.00176574 -0.00184279 -0.000721378 -0.000599026 -0.00184279 -0.00177684 -0.000599026 -0.000671221 -0.000869717 -0.000786066 0.000200625 0.000296502 -0.000786066 -0.000721378 0.000296502 0.000321489 0.000200625 0.000296502 0.00146644 0.00160069 0.000296502 0.000321489 0.00160069 0.0020013 -0.000721378 -0.000599026 0.000321489 0.000458664 -0.000599026 -0.000671221 0.000458664 0.000748411 0.000321489 0.000458664 0.0020013 0.00217451 0.000458664 0.000748411 0.00217451 0.0024821 -0.00296595 -0.00302366 -0.00177684 -0.00179364 -0.00302366 -0.00298982 -0.00179364 -0.0018248 -0.00177684 -0.00179364 -0.000671221 -0.000583485 -0.00179364 -0.0018248 -0.000583485 -0.000533087 -0.00298982 -0.00301745 -0.0018248 -0.00191706 -0.00301745 -0.00307255 -0.00191706 -0.00187169 -0.0018248 -0.00191706 -0.000533087 -0.000171274 -0.00191706 -0.00187169 -0.000171274 -2.11842e-05 -0.000671221 -0.000583485 0.000748411 0.00102967 -0.000583485 -0.000533087 0.00102967 0.00138092 0.000748411 0.00102967 0.0024821 0.00259963 0.00102967 0.00138092 0.00259963 0.00289493 -0.000533087 -0.000171274 0.00138092 0.00142035 -0.000171274 -2.11842e-05 0.00142035 0.00175763 0.00138092 0.00142035 0.00289493 0.00328838 0.00142035 0.00175763 0.00328838 0.00364922 0.00146644 0.00160069 0.00325465 0.00357418 0.00160069 0.0020013 0.00357418 0.0036938 0.00325465 0.00357418 0.00510534 0.00551114 0.00357418 0.0036938 0.00551114 0.0058594 0.0020013 0.00217451 0.0036938 0.00407226 0.00217451 0.0024821 0.00407226 0.00421193 0.0036938 0.00407226 0.0058594 0.006256 0.00407226 0.00421193 0.006256 0.00676073 0.00510534 0.00551114 0.00727025 0.00761172 0.00551114 0.0058594 0.00761172 0.00829141 0.00727025 0.00761172 0.00906314 0.00974079 0.00761172 0.00829141 0.00974079 0.0101425 0.0058594 0.006256 0.00829141 0.00862246 0.006256 0.00676073 0.00862246 0.00918656 0.00829141 0.00862246 0.0101425 0.0108673 0.00862246 0.00918656 0.0108673 0.0112643 0.0024821 0.00259963 0.00421193 0.00475431 0.00259963 0.00289493 0.00475431 0.00497465 0.00421193 0.00475431 0.00676073 0.00708251 0.00475431 0.00497465 0.00708251 0.0076691 0.00289493 0.00328838 0.00497465 0.00557214 0.00328838 0.003