# vtk DataFile Version 3.0
#This file was generated by the deal.II library on 2021/4/23 at 0:45:39
ASCII
DATASET UNSTRUCTURED_GRID

FIELD FieldData 2
CYCLE 1 1 int
28
TIME 1 1 double
0.056
POINTS 5076 double
-1 -1 0
-0.75 -1 0
-1 -0.75 0
-0.75 -0.75 0
-0.75 -1 0
-0.5 -1 0
-0.75 -0.75 0
-0.5 -0.75 0
-1 -0.75 0
-0.75 -0.75 0
-1 -0.5 0
-0.75 -0.5 0
-0.75 -0.75 0
-0.5 -0.75 0
-0.75 -0.5 0
-0.5 -0.5 0
-0.5 -1 0
-0.25 -1 0
-0.5 -0.75 0
-0.25 -0.75 0
-0.5 -0.75 0
-0.25 -0.75 0
-0.5 -0.5 0
-0.25 -0.5 0
-1 -0.5 0
-0.75 -0.5 0
-1 -0.25 0
-0.75 -0.25 0
-0.75 -0.5 0
-0.5 -0.5 0
-0.75 -0.25 0
-0.5 -0.25 0
-1 -0.25 0
-0.75 -0.25 0
-1 0 0
-0.75 0 0
-0.75 -0.25 0
-0.5 -0.25 0
-0.75 0 0
-0.5 0 0
-0.5 -0.5 0
-0.25 -0.5 0
-0.5 -0.25 0
-0.25 -0.25 0
-0.5 -0.25 0
-0.25 -0.25 0
-0.5 0 0
-0.25 0 0
-1 0 0
-0.75 0 0
-1 0.25 0
-0.75 0.25 0
-0.75 0 0
-0.5 0 0
-0.75 0.25 0
-0.5 0.25 0
-1 0.25 0
-0.75 0.25 0
-1 0.5 0
-0.75 0.5 0
-0.75 0.25 0
-0.5 0.25 0
-0.75 0.5 0
-0.5 0.5 0
-0.5 0 0
-0.25 0 0
-0.5 0.25 0
-0.25 0.25 0
-0.25 0 0
0 0 0
-0.25 0.25 0
0 0.25 0
-0.5 0.25 0
-0.25 0.25 0
-0.5 0.5 0
-0.25 0.5 0
-0.25 0.25 0
0 0.25 0
-0.25 0.5 0
0 0.5 0
-1 0.5 0
-0.75 0.5 0
-1 0.75 0
-0.75 0.75 0
-0.75 0.5 0
-0.5 0.5 0
-0.75 0.75 0
-0.5 0.75 0
-1 0.75 0
-0.75 0.75 0
-1 1 0
-0.75 1 0
-0.75 0.75 0
-0.5 0.75 0
-0.75 1 0
-0.5 1 0
-0.5 0.5 0
-0.25 0.5 0
-0.5 0.75 0
-0.25 0.75 0
-0.25 0.5 0
0 0.5 0
-0.25 0.75 0
0 0.75 0
-0.5 0.75 0
-0.25 0.75 0
-0.5 1 0
-0.25 1 0
-0.25 0.75 0
0 0.75 0
-0.25 1 0
0 1 0
0.25 -1 0
0.375 -1 0
0.25 -0.875 0
0.375 -0.875 0
-0.25 -0.5 0
-0.125 -0.5 0
-0.25 -0.375 0
-0.125 -0.375 0
-0.25 -0.375 0
-0.125 -0.375 0
-0.25 -0.25 0
-0.125 -0.25 0
-0.25 -0.25 0
-0.125 -0.25 0
-0.25 -0.125 0
-0.125 -0.125 0
-0.25 -0.125 0
-0.125 -0.125 0
-0.25 0 0
-0.125 0 0
-0.125 -0.125 0
0 -0.125 0
-0.125 0 0
0 0 0
-0.25 -1 0
-0.125 -1 0
-0.25 -0.875 0
-0.125 -0.875 0
-0.125 -1 0
0 -1 0
-0.125 -0.875 0
0 -0.875 0
-0.25 -0.875 0
-0.125 -0.875 0
-0.25 -0.75 0
-0.125 -0.75 0
-0.125 -0.875 0
0 -0.875 0
-0.125 -0.75 0
0 -0.75 0
-0.25 -0.75 0
-0.125 -0.75 0
-0.25 -0.625 0
-0.125 -0.625 0
-0.125 -0.75 0
0 -0.75 0
-0.125 -0.625 0
0 -0.625 0
-0.25 -0.625 0
-0.125 -0.625 0
-0.25 -0.5 0
-0.125 -0.5 0
-0.125 -0.625 0
0 -0.625 0
-0.125 -0.5 0
0 -0.5 0
0 -1 0
0.125 -1 0
0 -0.875 0
0.125 -0.875 0
0.125 -1 0
0.25 -1 0
0.125 -0.875 0
0.25 -0.875 0
0 -0.875 0
0.125 -0.875 0
0 -0.75 0
0.125 -0.75 0
0.125 -0.875 0
0.25 -0.875 0
0.125 -0.75 0
0.25 -0.75 0
0.9375 -0.0625 0
1 -0.0625 0
0.9375 0 0
1 0 0
0.625 -0.75 0
0.6875 -0.75 0
0.625 -0.6875 0
0.6875 -0.6875 0
0.6875 -0.75 0
0.75 -0.75 0
0.6875 -0.6875 0
0.75 -0.6875 0
0.75 -0.75 0
0.8125 -0.75 0
0.75 -0.6875 0
0.8125 -0.6875 0
0.8125 -0.75 0
0.875 -0.75 0
0.8125 -0.6875 0
0.875 -0.6875 0
0.25 -0.375 0
0.3125 -0.375 0
0.25 -0.3125 0
0.3125 -0.3125 0
0.25 -0.25 0
0.3125 -0.25 0
0.25 -0.1875 0
0.3125 -0.1875 0
0.25 -0.1875 0
0.3125 -0.1875 0
0.25 -0.125 0
0.3125 -0.125 0
0.5625 -0.75 0
0.625 -0.75 0
0.5625 -0.6875 0
0.625 -0.6875 0
0.5 -0.6875 0
0.5625 -0.6875 0
0.5 -0.625 0
0.5625 -0.625 0
0.5625 -0.6875 0
0.625 -0.6875 0
0.5625 -0.625 0
0.625 -0.625 0
0.5 -0.625 0
0.5625 -0.625 0
0.5 -0.5625 0
0.5625 -0.5625 0
0.5 -0.5625 0
0.5625 -0.5625 0
0.5 -0.5 0
0.5625 -0.5 0
0.9375 -0.75 0
1 -0.75 0
0.9375 -0.6875 0
1 -0.6875 0
0.875 -0.6875 0
0.9375 -0.6875 0
0.875 -0.625 0
0.9375 -0.625 0
0.9375 -0.6875 0
1 -0.6875 0
0.9375 -0.625 0
1 -0.625 0
0.9375 -0.625 0
1 -0.625 0
0.9375 -0.5625 0
1 -0.5625 0
0.3125 -0.5 0
0.375 -0.5 0
0.3125 -0.4375 0
0.375 -0.4375 0
0.25 -0.4375 0
0.3125 -0.4375 0
0.25 -0.375 0
0.3125 -0.375 0
0.3125 -0.4375 0
0.375 -0.4375 0
0.3125 -0.375 0
0.375 -0.375 0
0.375 -0.5 0
0.4375 -0.5 0
0.375 -0.4375 0
0.4375 -0.4375 0
0.4375 -0.5 0
0.5 -0.5 0
0.4375 -0.4375 0
0.5 -0.4375 0
0.3125 -0.125 0
0.375 -0.125 0
0.3125 -0.0625 0
0.375 -0.0625 0
0.25 -0.0625 0
0.3125 -0.0625 0
0.25 0 0
0.3125 0 0
0.3125 -0.0625 0
0.375 -0.0625 0
0.3125 0 0
0.375 0 0
0.375 -0.0625 0
0.4375 -0.0625 0
0.375 0 0
0.4375 0 0
0.375 -0.6875 0
0.4375 -0.6875 0
0.375 -0.625 0
0.4375 -0.625 0
0.3125 -0.625 0
0.375 -0.625 0
0.3125 -0.5625 0
0.375 -0.5625 0
0.375 -0.625 0
0.4375 -0.625 0
0.375 -0.5625 0
0.4375 -0.5625 0
0.4375 -0.625 0
0.5 -0.625 0
0.4375 -0.5625 0
0.5 -0.5625 0
0.375 -0.5625 0
0.4375 -0.5625 0
0.375 -0.5 0
0.4375 -0.5 0
0.4375 -0.5625 0
0.5 -0.5625 0
0.4375 -0.5 0
0.5 -0.5 0
0.625 -1 0
0.6875 -1 0
0.625 -0.9375 0
0.6875 -0.9375 0
0.6875 -1 0
0.75 -1 0
0.6875 -0.9375 0
0.75 -0.9375 0
0.625 -0.9375 0
0.6875 -0.9375 0
0.625 -0.875 0
0.6875 -0.875 0
0 -0.25 0
0.0625 -0.25 0
0 -0.1875 0
0.0625 -0.1875 0
0 -0.1875 0
0.0625 -0.1875 0
0 -0.125 0
0.0625 -0.125 0
0.375 -0.875 0
0.4375 -0.875 0
0.375 -0.8125 0
0.4375 -0.8125 0
0.25 -0.75 0
0.3125 -0.75 0
0.25 -0.6875 0
0.3125 -0.6875 0
0.3125 -0.75 0
0.375 -0.75 0
0.3125 -0.6875 0
0.375 -0.6875 0
0.25 -0.6875 0
0.3125 -0.6875 0
0.25 -0.625 0
0.3125 -0.625 0
0.3125 -0.6875 0
0.375 -0.6875 0
0.3125 -0.625 0
0.375 -0.625 0
0.5 -1 0
0.5625 -1 0
0.5 -0.9375 0
0.5625 -0.9375 0
0.5625 -1 0
0.625 -1 0
0.5625 -0.9375 0
0.625 -0.9375 0
0.5 -0.9375 0
0.5625 -0.9375 0
0.5 -0.875 0
0.5625 -0.875 0
0.5625 -0.9375 0
0.625 -0.9375 0
0.5625 -0.875 0
0.625 -0.875 0
0.75 -1 0
0.8125 -1 0
0.75 -0.9375 0
0.8125 -0.9375 0
0.8125 -1 0
0.875 -1 0
0.8125 -0.9375 0
0.875 -0.9375 0
0.75 -0.9375 0
0.8125 -0.9375 0
0.75 -0.875 0
0.8125 -0.875 0
0.8125 -0.9375 0
0.875 -0.9375 0
0.8125 -0.875 0
0.875 -0.875 0
0.875 -1 0
0.9375 -1 0
0.875 -0.9375 0
0.9375 -0.9375 0
0.9375 -1 0
1 -1 0
0.9375 -0.9375 0
1 -0.9375 0
0.875 -0.9375 0
0.9375 -0.9375 0
0.875 -0.875 0
0.9375 -0.875 0
0.9375 -0.9375 0
1 -0.9375 0
0.9375 -0.875 0
1 -0.875 0
0.875 -0.875 0
0.9375 -0.875 0
0.875 -0.8125 0
0.9375 -0.8125 0
0.9375 -0.875 0
1 -0.875 0
0.9375 -0.8125 0
1 -0.8125 0
0.875 -0.8125 0
0.9375 -0.8125 0
0.875 -0.75 0
0.9375 -0.75 0
0.9375 -0.8125 0
1 -0.8125 0
0.9375 -0.75 0
1 -0.75 0
0 -0.125 0
0.0625 -0.125 0
0 -0.0625 0
0.0625 -0.0625 0
0.0625 -0.125 0
0.125 -0.125 0
0.0625 -0.0625 0
0.125 -0.0625 0
0 -0.0625 0
0.0625 -0.0625 0
0 0 0
0.0625 0 0
0.0625 -0.0625 0
0.125 -0.0625 0
0.0625 0 0
0.125 0 0
0.125 -0.125 0
0.1875 -0.125 0
0.125 -0.0625 0
0.1875 -0.0625 0
0.1875 -0.125 0
0.25 -0.125 0
0.1875 -0.0625 0
0.25 -0.0625 0
0.125 -0.0625 0
0.1875 -0.0625 0
0.125 0 0
0.1875 0 0
0.1875 -0.0625 0
0.25 -0.0625 0
0.1875 0 0
0.25 0 0
0.375 -1 0
0.4375 -1 0
0.375 -0.9375 0
0.4375 -0.9375 0
0.4375 -1 0
0.5 -1 0
0.4375 -0.9375 0
0.5 -0.9375 0
0.375 -0.9375 0
0.4375 -0.9375 0
0.375 -0.875 0
0.4375 -0.875 0
0.4375 -0.9375 0
0.5 -0.9375 0
0.4375 -0.875 0
0.5 -0.875 0
0.25 -0.875 0
0.3125 -0.875 0
0.25 -0.8125 0
0.3125 -0.8125 0
0.3125 -0.875 0
0.375 -0.875 0
0.3125 -0.8125 0
0.375 -0.8125 0
0.25 -0.8125 0
0.3125 -0.8125 0
0.25 -0.75 0
0.3125 -0.75 0
0.3125 -0.8125 0
0.375 -0.8125 0
0.3125 -0.75 0
0.375 -0.75 0
0 -0.75 0
0.0625 -0.75 0
0 -0.6875 0
0.0625 -0.6875 0
0.0625 -0.75 0
0.125 -0.75 0
0.0625 -0.6875 0
0.125 -0.6875 0
0 -0.6875 0
0.0625 -0.6875 0
0 -0.625 0
0.0625 -0.625 0
0.0625 -0.6875 0
0.125 -0.6875 0
0.0625 -0.625 0
0.125 -0.625 0
0.125 -0.75 0
0.1875 -0.75 0
0.125 -0.6875 0
0.1875 -0.6875 0
0.1875 -0.75 0
0.25 -0.75 0
0.1875 -0.6875 0
0.25 -0.6875 0
0.125 -0.6875 0
0.1875 -0.6875 0
0.125 -0.625 0
0.1875 -0.625 0
0.1875 -0.6875 0
0.25 -0.6875 0
0.1875 -0.625 0
0.25 -0.625 0
0 -0.625 0
0.0625 -0.625 0
0 -0.5625 0
0.0625 -0.5625 0
0.0625 -0.625 0
0.125 -0.625 0
0.0625 -0.5625 0
0.125 -0.5625 0
0 -0.5625 0
0.0625 -0.5625 0
0 -0.5 0
0.0625 -0.5 0
0.0625 -0.5625 0
0.125 -0.5625 0
0.0625 -0.5 0
0.125 -0.5 0
-0.125 -0.5 0
-0.0625 -0.5 0
-0.125 -0.4375 0
-0.0625 -0.4375 0
-0.0625 -0.5 0
0 -0.5 0
-0.0625 -0.4375 0
0 -0.4375 0
-0.125 -0.4375 0
-0.0625 -0.4375 0
-0.125 -0.375 0
-0.0625 -0.375 0
-0.0625 -0.4375 0
0 -0.4375 0
-0.0625 -0.375 0
0 -0.375 0
-0.125 -0.375 0
-0.0625 -0.375 0
-0.125 -0.3125 0
-0.0625 -0.3125 0
-0.0625 -0.375 0
0 -0.375 0
-0.0625 -0.3125 0
0 -0.3125 0
-0.125 -0.3125 0
-0.0625 -0.3125 0
-0.125 -0.25 0
-0.0625 -0.25 0
-0.0625 -0.3125 0
0 -0.3125 0
-0.0625 -0.25 0
0 -0.25 0
-0.125 -0.25 0
-0.0625 -0.25 0
-0.125 -0.1875 0
-0.0625 -0.1875 0
-0.0625 -0.25 0
0 -0.25 0
-0.0625 -0.1875 0
0 -0.1875 0
-0.125 -0.1875 0
-0.0625 -0.1875 0
-0.125 -0.125 0
-0.0625 -0.125 0
-0.0625 -0.1875 0
0 -0.1875 0
-0.0625 -0.125 0
0 -0.125 0
0.78125 -0.4375 0
0.8125 -0.4375 0
0.78125 -0.40625 0
0.8125 -0.40625 0
0.78125 -0.40625 0
0.8125 -0.40625 0
0.78125 -0.375 0
0.8125 -0.375 0
0.78125 -0.34375 0
0.8125 -0.34375 0
0.78125 -0.3125 0
0.8125 -0.3125 0
0.75 -0.3125 0
0.78125 -0.3125 0
0.75 -0.28125 0
0.78125 -0.28125 0
0.75 -0.28125 0
0.78125 -0.28125 0
0.75 -0.25 0
0.78125 -0.25 0
0.78125 -0.28125 0
0.8125 -0.28125 0
0.78125 -0.25 0
0.8125 -0.25 0
0.8125 -0.3125 0
0.84375 -0.3125 0
0.8125 -0.28125 0
0.84375 -0.28125 0
0.8125 -0.28125 0
0.84375 -0.28125 0
0.8125 -0.25 0
0.84375 -0.25 0
0.9375 -0.375 0
0.96875 -0.375 0
0.9375 -0.34375 0
0.96875 -0.34375 0
0.96875 -0.375 0
1 -0.375 0
0.96875 -0.34375 0
1 -0.34375 0
0.9375 -0.34375 0
0.96875 -0.34375 0
0.9375 -0.3125 0
0.96875 -0.3125 0
0.96875 -0.34375 0
1 -0.34375 0
0.96875 -0.3125 0
1 -0.3125 0
0.9375 -0.3125 0
0.96875 -0.3125 0
0.9375 -0.28125 0
0.96875 -0.28125 0
0.96875 -0.3125 0
1 -0.3125 0
0.96875 -0.28125 0
1 -0.28125 0
0.9375 -0.28125 0
0.96875 -0.28125 0
0.9375 -0.25 0
0.96875 -0.25 0
0.96875 -0.28125 0
1 -0.28125 0
0.96875 -0.25 0
1 -0.25 0
0.59375 -0.25 0
0.625 -0.25 0
0.59375 -0.21875 0
0.625 -0.21875 0
0.5625 -0.21875 0
0.59375 -0.21875 0
0.5625 -0.1875 0
0.59375 -0.1875 0
0.59375 -0.21875 0
0.625 -0.21875 0
0.59375 -0.1875 0
0.625 -0.1875 0
0.65625 -0.25 0
0.6875 -0.25 0
0.65625 -0.21875 0
0.6875 -0.21875 0
0.6875 -0.25 0
0.71875 -0.25 0
0.6875 -0.21875 0
0.71875 -0.21875 0
0.71875 -0.25 0
0.75 -0.25 0
0.71875 -0.21875 0
0.75 -0.21875 0
0.71875 -0.21875 0
0.75 -0.21875 0
0.71875 -0.1875 0
0.75 -0.1875 0
0.71875 -0.1875 0
0.75 -0.1875 0
0.71875 -0.15625 0
0.75 -0.15625 0
0.625 -0.0625 0
0.65625 -0.0625 0
0.625 -0.03125 0
0.65625 -0.03125 0
0.65625 -0.0625 0
0.6875 -0.0625 0
0.65625 -0.03125 0
[...]
POINT_DATA 5076
SCALARS U double 1
LOOKUP_TABLE default
0 0 0 2.74871e-07 0 0 2.74871e-07 -4.91958e-06 0 2.74871e-07 0 5.40599e-07 2.74871e-07 -4.91958e-06 5.40599e-07 -9.77164e-06 0 0 -4.91958e-06 1.07901e-05 -4.91958e-06 1.07901e-05 -9.77164e-06 3.06128e-05 0 5.40599e-07 0 -9.59259e-08 5.40599e-07 -9.77164e-06 -9.59259e-08 -6.46005e-06 0 -9.59259e-08 0 -1.73835e-07 -9.59259e-08 -6.46005e-06 -1.73835e-07 -2.41122e-06 -9.77164e-06 3.06128e-05 -6.46005e-06 3.00618e-05 -6.46005e-06 3.00618e-05 -2.41122e-06 1.65908e-05 0 -1.73835e-07 0 -8.08306e-08 -1.73835e-07 -2.41122e-06 -8.08306e-08 2.38381e-07 0 -8.08306e-08 0 3.47219e-08 -8.08306e-08 2.38381e-07 3.47219e-08 -7.85003e-08 -2.41122e-06 1.65908e-05 2.38381e-07 -1.99881e-06 1.65908e-05 0 -1.99881e-06 0 2.38381e-07 -1.99881e-06 -7.85003e-08 9.75827e-08 -1.99881e-06 0 9.75827e-08 0 0 3.47219e-08 0 -4.75397e-09 3.47219e-08 -7.85003e-08 -4.75397e-09 2.30929e-08 0 -4.75397e-09 0 0 -4.75397e-09 2.30929e-08 0 0 -7.85003e-08 9.75827e-08 2.30929e-08 1.95274e-08 9.75827e-08 0 1.95274e-08 0 2.30929e-08 1.95274e-08 0 0 1.95274e-08 0 0 0 0 0 0.000437706 0.000735287 3.06128e-05 0.000150287 3.03373e-05 0.000178493 3.03373e-05 0.000178493 3.00618e-05 0.000156031 3.00618e-05 0.000156031 2.33263e-05 8.66738e-05 2.33263e-05 8.66738e-05 1.65908e-05 8.29542e-06 8.66738e-05 0.000284154 8.29542e-06 0 0 0 5.39503e-06 2.9318e-05 0 0 2.9318e-05 9.48671e-05 5.39503e-06 2.9318e-05 1.07901e-05 6.563e-05 2.9318e-05 9.48671e-05 6.563e-05 0.000201578 1.07901e-05 6.563e-05 2.07014e-05 0.000109255 6.563e-05 0.000201578 0.000109255 0.000339444 2.07014e-05 0.000109255 3.06128e-05 0.000150287 0.000109255 0.000339444 0.000150287 0.00046505 0 0 9.48671e-05 0.000227203 0 0 0.000227203 0.000437706 9.48671e-05 0.000227203 0.000201578 0.000491626 0.000227203 0.000437706 0.000491626 0.00101015 0.00102394 0 0 0 0.00305217 0.00304534 0.00427671 0.00428862 0.00304534 0.00282414 0.00428862 0.00397818 0.00282414 0.00236925 0.00397818 0.00335092 0.00236925 0.00170853 0.00335092 0.00241936 0.00309408 0.00429343 0.00307496 0.00429642 0.00285072 0.00398493 0.00240092 0.0033647 0.00240092 0.0033647 0.00172953 0.00242802 0.00286749 0.00305217 0.00401931 0.00427671 0.00357713 0.00401931 0.00473408 0.00533987 0.00401931 0.00427671 0.00533987 0.00569526 0.00473408 0.00533987 0.00595786 0.00674792 0.00595786 0.00674792 0.0071486 0.00810006 0.000896444 0 0.0012666 0 0.00241936 0.0012666 0.00324215 0.00171181 0.0012666 0 0.00171181 0 0.00171181 0 0.00217834 0 0.0035926 0.00473934 0.00403529 0.00534558 0.00290578 0.00403529 0.00309408 0.00429343 0.00403529 0.00534558 0.00429343 0.00570098 0.00473934 0.00595913 0.00534558 0.00674962 0.00595913 0.0071486 0.00674962 0.00810076 0.00242802 0.00324443 0.00127123 0.00171352 0.000907776 0.00127123 0 0 0.00127123 0.00171352 0 0 0.00171352 0.00217898 0 0 0.002427 0.00302155 0.0031951 0.00397759 0.00243473 0.0031951 0.00303471 0.00398138 0.0031951 0.00397759 0.00398138 0.00499553 0.00397759 0.00473408 0.00499553 0.00595786 0.00398138 0.00499553 0.00473934 0.00595913 0.00499553 0.00595786 0.00595913 0.0071486 0 0 0.000571771 0.00057452 0 0 0.00057452 0.000523081 0.000571771 0.00057452 0.00123637 0.00121869 0.000483002 0.000800996 0.000403947 0.000673569 0.000403947 0.000673569 0.000284154 0.00047088 0.000735287 0.000901704 0.00119692 0.00147382 0.00101015 0.00136994 0.00138517 0.00186726 0.00136994 0.00176511 0.00186726 0.002427 0.00138517 0.00186726 0.00178992 0.00243473 0.00186726 0.002427 0.00243473 0.0031951 0 0 0.000493457 0.000547423 0 0 0.000547423 0.000571771 0.000493457 0.000547423 0.00105591 0.00117419 0.000547423 0.000571771 0.00117419 0.00123637 0 0 0.000523081 0.000437451 0 0 0.000437451 0.000312617 0.000523081 0.000437451 0.00112433 0.000950471 0.000437451 0.000312617 0.000950471 0.000678124 0 0 0.000312617 0.000163943 0 0 0.000163943 0 0.000312617 0.000163943 0.000678124 0.000355251 0.000163943 0 0.000355251 0 0.000678124 0.000355251 0.00111046 0.000590074 0.000355251 0 0.000590074 0 0.00111046 0.000590074 0.00170853 0.000896444 0.000590074 0 0.000896444 0 0.000284154 0.00047088 0.000142077 0.000246376 0.00047088 0.0007637 0.000246376 0.000399229 0.000142077 0.000246376 0 0 0.000246376 0.000399229 0 0 0.0007637 0.00115376 0.000399229 0.000612157 0.00115376 0.00172953 0.000612157 0.000907776 0.000399229 0.000612157 0 0 0.000612157 0.000907776 0 0 0 0 0.000367643 0.000425873 0 0 0.000425873 0.000493457 0.000367643 0.000425873 0.000735287 0.000901704 0.000425873 0.000493457 0.000901704 0.00105591 0.000437706 0.000586497 0.00072393 0.00093772 0.000586497 0.000735287 0.00093772 0.00119692 0.00072393 0.00093772 0.00101015 0.00136994 0.00093772 0.00119692 0.00136994 0.00176511 0.000201578 0.000346602 0.000270511 0.000432773 0.000346602 0.000491626 0.000432773 0.000672236 0.000270511 0.000432773 0.000339444 0.00054381 0.000432773 0.000672236 0.00054381 0.000848847 0.000491626 0.00075089 0.000672236 0.000976435 0.00075089 0.00101015 0.000976435 0.00138517 0.000672236 0.000976435 0.000848847 0.00124657 0.000976435 0.00138517 0.00124657 0.00178992 0.000339444 0.00054381 0.000402247 0.000657 0.00054381 0.000848847 0.000657 0.00103403 0.000402247 0.000657 0.00046505 0.00075482 0.000657 0.00103403 0.00075482 0.00120137 0.000150287 0.000307668 0.00016439 0.000305171 0.000307668 0.00046505 0.000305171 0.000529364 0.00016439 0.000305171 0.000178493 0.000316051 0.000305171 0.000529364 0.000316051 0.000544705 0.000178493 0.000316051 0.000167262 0.000307903 0.000316051 0.000544705 0.000307903 0.000540012 0.000167262 0.000307903 0.000156031 0.000279611 0.000307903 0.000540012 0.000279611 0.000483002 0.000156031 0.000279611 0.000121352 0.000231895 0.000279611 0.000483002 0.000231895 0.000403947 0.000121352 0.000231895 8.66738e-05 0.000185414 0.000231895 0.000403947 0.000185414 0.000284154 0.00870621 0.00793901 0.00916806 0.00827747 0.00916806 0.00827747 0.00941101 0.00859757 0.00959645 0.00866908 0.0095668 0.00870484 0.0101949 0.0095668 0.00999143 0.0093873 0.00999143 0.0093873 0.00956582 0.00896677 0.0093873 0.00847254 0.00896677 0.00811244 0.00870484 0.00753343 0.00847254 0.00747463 0.00847254 0.00747463 0.00811244 0.00711532 0.00330665 0.00164701 0.00333465 0.00168955 0.00164701 0 0.00168955 0 0.00333465 0.00168955 0.00335055 0.00167059 0.00168955 0 0.00167059 0 0.00335055 0.00167059 0.003258 0.00164878 0.00167059 0 0.00164878 0 0.003258 0.00164878 0.00314683 0.00156713 0.00164878 0 0.00156713 0 0.00979059 0.01007 0.00918138 0.00942512 0.00870376 0.00918138 0.00794477 0.00827979 0.00918138 0.00942512 0.00827979 0.00860005 0.0102319 0.0101979 0.00961156 0.00957174 0.0101979 0.00999028 0.00957174 0.00939184 0.00999028 0.00956582 0.00939184 0.00896685 0.00939184 0.00896685 0.00848484 0.00811221 0.00848484 0.00811221 0.00748235 0.00711567 0.00330776 0.00333572 0.00164755 0.0016901 0.00333572 0.00335151 0.0016901 0.00167112 0.00164755 0.0016901 0 0 0.0016901 0.00167112 0 0 0.00335151 0.00325883 0.00167112 0.00164925 0.00325883 0.00314752 0.00164925 0.00156752 0.00167112 0.00164925 0 0 0.00164925 0.00156752 0 0 0.00896677 0.00811244 0.0084153 0.00760054 0.00896685 0.0084153 0.00811221 0.00760056 0.00811244 0.00711532 0.00760054 0.00670819 0.00811221 0.00760056 0.00711567 0.00670844 0.00314683 0.00156713 0.00291766 0.00147905 0.00156713 0 0.00147905 0 0.00291766 0.00147905 0.0026766 0.00132495 0.00147905 0 0.00132495 0 0.0026766 0.00132495 0.00231857 0.0011833 0.00132495 0 0.0011833 0 0.00231857 0.0011833 0.00195231 0.000960771 0.0011833 0 0.000960771 0 0.00314752 0.00291819 0.00156752 0.00147934 0.00291819 0.00267696 0.00147934 0.00132515 0.00156752 0.00147934 0 0 0.00147934 0.00132515 0 0 0.00267696 0.00231877 0.00132515 0.00118341 0.00231877 0.0019524 0.00118341 0.000960826 0.00132515 0.00118341 0 0 0.00118341 0.000960826 0 0 0.0038467 0.00264059 0.00421282 0.00284786 0.00538396 0.00421282 0.00577937 0.00445557 0.00421282 0.00284786 0.00445557 0.00301375 0.00473752 0.00316615 0.0047627 0.00330665 0.00301375 0.00153758 0.00316615 0.00162634 0.00153758 0 0.00162634 0 0.00316615 0.00162634 0.00330665 0.00164701 0.00162634 0 0.00164701 0 0.0053858 0.00578184 0.00421422 0.00445713 0.00384766 0.00421422 0.00264119 0.00284858 0.00421422 0.00445713 0.00284858 0.00301463 0.00473929 0.00476444 0.0031672 0.00330776 0.00301463 0.0031672 0.00153797 0.00162683 0.0031672 0.00330776 0.00162683 0.00164755 0.00153797 0.00162683 0 0 0.00162683 0.00164755 0 0 0.00195231 0.000960771 0.00147479 0.000771971 0.000960771 0 0.000771971 0 0.00147479 0.000771971 0.00102394 0.000511971 0.000771971 0 0.000511971 0 0.0019524 0.00147482 0.000960826 0.000771991 0.00147482 0.00102394 0.000771991 0.000511971 0.000960826 0.000771991 0 0 0.000771991 0.000511971 0 0 0.0071486 0.00762433 0.00762468 0.00819425 0.00762433 0.00810006 0.00819425 0.00870202 0.00762468 0.00819425 0.00810076 0.00870229 0.00810006 0.00846417 0.00870202 0.00912246 0.00846417 0.00865324 0.00912246 0.00933729 0.00870202 0.00912246 0.00918569 0.00963923 0.00912246 0.00933729 0.00963923 0.00986781 0.00810076 0.00870229 0.00846492 0.009123 0.00870229 0.00918569 0.009123 0.0096396 0.00846492 0.009123 0.00865376 0.00933899 0.009123 0.0096396 0.00933899 0.00987011 0.00427671 0.00428267 0.00498598 0.00501067 0.00428267 0.00428862 0.00501067 0.00497784 0.00498598 0.00501067 0.00569526 0.00577249 0.00501067 0.00497784 0.00577249 0.00569593 0.00428862 0.0041334 0.00497784 0.00485312 0.0041334 0.00397818 0.00485312 0.00462692 0.00720028 0.00732294 0.00799587 0.00802585 0.00918569 0.00963923 0.0096396 0.0101236 0.00963923 0.00986781 0.0101236 0.0103687 0.0096396 0.0101236 0.00987011 0.0103692 0.0101236 0.0103687 0.0103692 0.0106224 0.00865324 0.008817 0.00933729 0.00951323 0.008817 0.00870748 0.00951323 0.00940577 0.00933729 0.00951323 0.00986781 0.0100606 0.00951323 0.00940577 0.0100606 0.00995016 0.00397818 0.00366455 0.00462692 0.00428971 0.00366455 0.00335092 0.00428971 0.00389975 0.00462692 0.00428971 0.00529826 0.0049664 0.00335092 0.00288514 0.00389975 0.00338969 0.00288514 0.00241936 0.00338969 0.00283076 0.00389975 0.00338969 0.00445403 0.00392813 0.00338969 0.00283076 0.00392813 0.00324215 0.00674114 0.00633821 0.00750725 0.00696388 0.00870748 0.00857215 0.00940577 0.00925184 0.00857215 0.00813817 0.00925184 0.00879152 0.00940577 0.00925184 0.00995016 0.0097917 0.00925184 0.00879152 0.0097917 0.00930118 0.00429343 0.0049972 0.00429492 0.00502031 0.0049972 0.00570098 0.00502031 0.00577984 0.00429492 0.00502031 0.00429642 0.0049961 0.00502031 0.00577984 0.0049961 0.00570328 0.00307496 0.00368569 0.00301661 0.00358176 0.00368569 0.00429642 0.00358176 0.0041802 0.00301661 0.00358176 0.00285072 0.00341782 0.00358176 0.0041802 0.00341782 0.00398493 0.00429642 0.0049961 0.0041802 0.00486386 0.00720287 0.00799804 0.00732634 0.00802788 0.00986781 0.0100606 0.0103687 0.0105729 0.0100606 0.00995016 0.0105729 0.0104582 0.0103687 0.0105729 0.0106224 0.0108334 0.0105729 0.0104582 0.0108334 0.0107198 0.00398493 0.00464459 0.00367481 0.00431769 0.00367481 0.00431769 0.0033647 0.00390488 0.00995016 0.0097917 0.0104582 0.0102969 0.0097917 0.00930118 0.0102969 0.00978544 0.0104582 0.0102969 0.0107198 0.0105707 0.0102969 0.00978544 0.0105707 0.0100382 0.0033647 0.00390488 0.00289636 0.00339511 0.00390488 0.00446741 0.00339511 0.0039306 0.00289636 0.00339511 0.00242802 0.00283622 0.00339511 0.0039306 0.00283622 0.00324443 0.00865376 0.00933899 0.00881954 0.0095153 0.00933899 0.00987011 0.0095153 0.0100606 0.00881954 0.0095153 0.00871199 0.00940782 0.0095153 0.0100606 0.00940782 0.00995258 0.00987011 0.0103692 0.0100606 0.0105722 0.0103692 0.0106224 0.0105722 0.0108328 0.0100606 0.0105722 0.00995258 0.010466 0.0105722 0.0108328 0.010466 0.0107276 0.00871199 0.00940782 0.0085761 0.00925403 0.00940782 0.00995258 0.00925403 0.00980494 0.0085761 0.00925403 0.00814265 0.00879415 0.00925403 0.00980494 0.00879415 0.00930634 0.0106224 0.0108334 0.0108328 0.0110518 0.0108334 0.0107198 0.0110518 0.0109495 0.0108328 0.0110518 0.0107276 0.0109547 0.0110518 0.0109495 0.0109547 0.0108454 0.00533987 0.00551756 0.00604389 0.00630555 0.00551756 0.00569526 0.00630555 0.00642793 0.00604389 0.00630555 0.00674792 0.0070089 0.00264059 0.00134524 0.00284786 0.00145207 0.00134524 0 0.00145207 0 0.00284786 0.00145207 0.00301375 0.00153758 0.00145207 0 0.00153758 0 0.00674792 0.0070089 0.00742399 0.00774529 0.00742399 0.00774529 0.00810006 0.00846417 0.00264119 0.00284858 0.00134542 0.00145238 0.00284858 0.00301463 0.00145238 0.00153797 0.00134542 0.00145238 0 0 0.00145238 0.00153797 0 0 0.00324215 0.00247698 0.00367075 0.00286209 0.00247698 0.00171181 0.00286209 0.00194507 0.00367075 0.00286209 0.0041386 0.00318244 0.00286209 0.00194507 0.00318244 0.00217834 0.00318244 0.00217834 0.00354741 0.00243385 0.00217834 0.00108917 0.00243385 0.0012036 0.00108917 0 0.0012036 0 0.00243385 0.0012036 0.00264059 0.00134524 0.0012036 0 0.00134524 0 0.00569526 0.00577249 0.00642793 0.00652854 0.00577249 0.00569593 0.00652854 0.00645435 0.00642793 0.00652854 0.00720028 0.00732294 0.00652854 0.00645435 0.00732294 0.00724176 0.00529826 0.0049664 0.00600671 0.00563607 0.0049664 0.00445403 0.00563607 0.00506145 0.00600671 0.00563607 0.00674114 0.00633821 0.00563607 0.00506145 0.00633821 0.00568895 0.00445403 0.00392813 0.00506145 0.0044564 0.00392813 0.00324215 0.0044564 0.00367075 0.00506145 0.0044564 0.00568895 0.00500578 0.0044564 0.00367075 0.00500578 0.0041386 0.00568895 0.00500578 0.00630059 0.00554388 0.00500578 0.0041386 0.00554388 0.00457465 0.00630059 0.00554388 0.00688885 0.00606304 0.00554388 0.00457465 0.00606304 0.00500019 0.00570098 0.00643161 0.00577984 0.00653258 0.00643161 0.00720287 0.00653258 0.00732634 0.00577984 0.00653258 0.00570328 0.00645966 0.00653258 0.00732634 0.00645966 0.00724606 0.00534558 0.0060476 0.00552328 0.00630905 0.0060476 0.00674962 0.00630905 0.00701107 0.00552328 0.00630905 0.00570098 0.00643161 0.00674962 0.00742519 0.00701107 0.007747 0.00742519 0.00810076 0.007747 0.00846492 0.00446741 0.00507004 0.0039306 0.00445431 0.00507004 0.00570214 0.00445431 0.00500543 0.0039306 0.00445431 0.00324443 0.00367066 0.00445431 0.00500543 0.00367066 0.00413069 0.00324443 0.00367066 0.00247897 0.00286388 0.00247897 0.00286388 0.00171352 0.00194625 0.00286388 0.00317657 0.00194625 0.00217898 0.00317657 0.00355 0.00217898 0.00243392 0.00217898 0.00243392 0.00108949 0.00120367 0.00243392 0.00264119 0.00120367 0.00134542 0.00108949 0.00120367 0 0 0.00120367 0.00134542 0 0 0.00570214 0.00630909 0.00500543 0.00554358 0.00630909 0.00688803 0.00554358 0.00606458 0.00500543 0.00554358 0.00413069 0.00457656 0.00554358 0.00606458 0.00457656 0.00500262 0.00256898 0.00274446 0.00303261 0.00324054 0.00274446 0.00286749 0.00324054 0.0034434 0.00303261 0.00324054 0.00357713 0.00379822 0.00324054 0.0034434 0.00379822 0.00401931 0.00170853 0.00130249 0.00206395 0.00157054 0.00130249 0.000896444 0.00157054 0.00108152 0.00206395 0.00157054 0.00241936 0.00184298 0.00157054 0.00108152 0.00184298 0.0012666 0.00260559 0.00305624 0.0027828 0.00326519 0.00305624 0.0035926 0.00326519 0.00381394 0.0027828 0.00326519 0.00290578 0.00347054 0.00326519 0.00381394 0.00347054 0.00403529 0.00172953 0.00207878 0.00131865 0.00158138 0.00207878 0.00242802 0.00158138 0.00184963 0.00131865 0.00158138 0.000907776 0.0010895 0.00158138 0.00184963 0.0010895 0.00127123 0.00176511 0.00198005 0.00209606 0.0023246 0.00198005 0.00217949 0.0023246 0.00257363 0.00209606 0.0023246 0.002427 0.00272428 0.0023246 0.00257363 0.00272428 0.00302155 0.00217949 0.00238494 0.00257363 0.00281414 0.00238494 0.00256898 0.00281414 0.00303261 0.00257363 0.00281414 0.00302155 0.00331892 0.00281414 0.00303261 0.00331892 0.00357713 0.00302155 0.00331892 0.00349957 0.00381701 0.00331892 0.00357713 0.00381701 0.00415561 0.00349957 0.00381701 0.00397759 0.00435584 0.00381701 0.00415561 0.00435584 0.00473408 0.00178992 0.00211233 0.00200915 0.00234259 0.00211233 0.00243473 0.00234259 0.00273472 0.00200915 0.00234259 0.00221112 0.00259396 0.00234259 0.00273472 0.00259396 0.00303471 0.00221112 0.00259396 0.00241924 0.00283633 0.00259396 0.00303471 0.00283633 0.00333368 0.00241924 0.00283633 0.00260559 0.00305624 0.00283633 0.00333368 0.00305624 0.0035926 0.00303471 0.00350805 0.00333368 0.00382556 0.00350805 0.00398138 0.00382556 0.00436036 0.00333368 0.00382556 0.0035926 0.00416597 0.00382556 0.00436036 0.00416597 0.00473934 0.00057452 0.000548801 0.000896603 0.000853289 0.000548801 0.000523081 0.000853289 0.000823707 0.000896603 0.000853289 0.00121869 0.00119756 0.000853289 0.000823707 0.00119756 0.00112433 0.00105591 0.00111505 0.00135991 0.00144717 0.00111505 0.00117419 0.00144717 0.00151092 0.00135991 0.00144717 0.00173225 0.00184331 0.00144717 0.00151092 0.00184331 0.00192722 0.00117419 0.00120528 0.00151092 0.0015671 0.00120528 0.00123637 0.0015671 0.00159051 0.00151092 0.0015671 0.00192722 0.0020021 0.0015671 0.00159051 0.0020021 0.00203751 0.00173225 0.00184331 0.00211085 0.0022489 0.00184331 0.00192722 0.0022489 0.00235342 0.00211085 0.0022489 0.00256898 0.00274446 0.0022489 0.00235342 0.00274446 0.00286749 0.00192722 0.0020021 0.00235342 0.00244829 0.0020021 0.00203751 0.00244829 0.00248606 0.00235342 0.00244829 0.00286749 0.00295983 0.00244829 0.00248606 0.00295983 0.00305217 0.00123637 0.00122753 0.00159051 0.0016074 0.00122753 0.00121869 0.0016074 0.0015795 0.00159051 0.0016074 0.00203751 0.00205724 0.0016074 0.0015795 0.00205724 0.00202591 0.00121869 0.00119756 0.0015795 0.00154287 0.00119756 0.00112433 0.00154287 0.00145559 0.0015795 0.00154287 0.00202591 0.00197742 0.00154287 0.00145559 0.00197742 0.00187112 0.00203751 0.00205724 0.00248606 0.00251871 0.00205724 0.00202591 0.00251871 0.00247394 0.00248606 0.00251871 0.00305217 0.00304876 0.00251871 0.00247394 0.00304876 0.00304534 0.00202591 0.00197742 0.00247394 0.00242286 0.00197742 0.00187112 0.00242286 0.00228745 0.00247394 0.00242286 0.00304534 0.00293474 0.00242286 0.00228745 0.00293474 0.00282414 0.00112433 0.0010374 0.00145559 0.00135812 0.0010374 0.000950471 0.00135812 0.00121985 0.00145559 0.00135812 0.00187112 0.00174527 0.00135812 0.00121985 0.00174527 0.00157025 0.000950471 0.000814298 0.00121985 0.00106847 0.000814298 0.000678124 0.00106847 0.000894293 0.00121985 0.00106847 0.00157025 0.00137382 0.00106847 0.000894293 0.00137382 0.00111046 0.00187112 0.00174527 0.00228745 0.00214434 0.00174527 0.00157025 0.00214434 0.00191932 0.00228745 0.00214434 0.00282414 0.00259669 0.00214434 0.00191932 0.00259669 0.00236925 0.00157025 0.00137382 0.00191932 0.00168886 0.00137382 0.00111046 0.00168886 0.0014095 0.00191932 0.00168886 0.00236925 0.00203889 0.00168886 0.0014095 0.00203889 0.00170853 0.00046505 0.000609935 0.000497207 0.000633735 0.000609935 0.00075482 0.000633735 0.000818207 0.000497207 0.000633735 0.000529364 0.000660793 0.000633735 0.000818207 0.000660793 0.000854065 0.00075482 0.000978096 0.000818207 0.00101592 0.000978096 0.00120137 0.00101592 0.00128192 0.000818207 0.00101592 0.000854065 0.00105897 0.00101592 0.00128192 0.00105897 0.0013333 0.000529364 0.000660793 0.000537034 0.000681551 0.000660793 0.000854065 0.000681551 0.000880296 0.000537034 0.000681551 0.000544705 0.000687872 0.000681551 0.000880296 0.000687872 0.000893094 0.000854065 0.00105897 0.000880296 0.00109393 0.00105897 0.0013333 0.00109393 0.00138271 0.000880296 0.00109393 0.000893094 0.00110885 0.00109393 0.00138271 0.00110885 0.00140333 0.00120137 0.0014643 0.00128192 0.00155752 0.0014643 0.00180657 0.00155752 0.00192369 0.00128192 0.00155752 0.0013333 0.00162704 0.00155752 0.00192369 0.00162704 0.00201211 0.00180657 0.00216261 0.00192369 0.00230318 0.00216261 0.00260559 0.00230318 0.0027828 0.00192369 0.00230318 0.00201211 0.0024095 0.00230318 0.0027828 0.0024095 0.00290578 0.0013333 0.00162704 0.00138271 0.00168801 0.00162704 0.00201211 0.00168801 0.00208938 0.00138271 0.00168801 0.00140333 0.00171352 0.00168801 0.00208938 0.00171352 0.00212486 0.00201211 0.0024095 0.00208938 0.00250602 0.0024095 0.00290578 0.00250602 