<?xml version="1.0" ?> 
<!-- 
# vtk DataFile Version 3.0
#This file was generated by the deal.II library on 21:43:11 at 2021/4/29
-->
<VTKFile type="UnstructuredGrid" version="0.1" byte_order="LittleEndian">
<UnstructuredGrid>
<Piece NumberOfPoints="65536" NumberOfCells="16384" >
  <Points>
    <DataArray type="Float32" NumberOfComponents="3" format="ascii">
-1 -1 0
-0.984375 -1 0
-1 -0.984375 0
-0.984375 -0.984375 0
-0.984375 -1 0
-0.96875 -1 0
-0.984375 -0.984375 0
-0.96875 -0.984375 0
-1 -0.984375 0
-0.984375 -0.984375 0
-1 -0.96875 0
-0.984375 -0.96875 0
-0.984375 -0.984375 0
-0.96875 -0.984375 0
-0.984375 -0.96875 0
-0.96875 -0.96875 0
-0.96875 -1 0
-0.953125 -1 0
-0.96875 -0.984375 0
-0.953125 -0.984375 0
-0.953125 -1 0
-0.9375 -1 0
-0.953125 -0.984375 0
-0.9375 -0.984375 0
-0.96875 -0.984375 0
-0.953125 -0.984375 0
-0.96875 -0.96875 0
-0.953125 -0.96875 0
-0.953125 -0.984375 0
-0.9375 -0.984375 0
-0.953125 -0.96875 0
-0.9375 -0.96875 0
-1 -0.96875 0
-0.984375 -0.96875 0
-1 -0.953125 0
-0.984375 -0.953125 0
-0.984375 -0.96875 0
-0.96875 -0.96875 0
-0.984375 -0.953125 0
-0.96875 -0.953125 0
-1 -0.953125 0
-0.984375 -0.953125 0
-1 -0.9375 0
-0.984375 -0.9375 0
-0.984375 -0.953125 0
-0.96875 -0.953125 0
-0.984375 -0.9375 0
-0.96875 -0.9375 0
-0.96875 -0.96875 0
-0.953125 -0.96875 0
-0.96875 -0.953125 0
-0.953125 -0.953125 0
-0.953125 -0.96875 0
-0.9375 -0.96875 0
-0.953125 -0.953125 0
-0.9375 -0.953125 0
-0.96875 -0.953125 0
-0.953125 -0.953125 0
-0.96875 -0.9375 0
-0.953125 -0.9375 0
-0.953125 -0.953125 0
-0.9375 -0.953125 0
-0.953125 -0.9375 0
-0.9375 -0.9375 0
-0.9375 -1 0
-0.921875 -1 0
-0.9375 -0.984375 0
-0.921875 -0.984375 0
-0.921875 -1 0
-0.90625 -1 0
-0.921875 -0.984375 0
-0.90625 -0.984375 0
-0.9375 -0.984375 0
-0.921875 -0.984375 0
-0.9375 -0.96875 0
-0.921875 -0.96875 0
-0.921875 -0.984375 0
-0.90625 -0.984375 0
-0.921875 -0.96875 0
-0.90625 -0.96875 0
-0.90625 -1 0
-0.890625 -1 0
-0.90625 -0.984375 0
-0.890625 -0.984375 0
-0.890625 -1 0
-0.875 -1 0
-0.890625 -0.984375 0
-0.875 -0.984375 0
-0.90625 -0.984375 0
-0.890625 -0.984375 0
-0.90625 -0.96875 0
-0.890625 -0.96875 0
-0.890625 -0.984375 0
-0.875 -0.984375 0
-0.890625 -0.96875 0
-0.875 -0.96875 0
-0.9375 -0.96875 0
-0.921875 -0.96875 0
-0.9375 -0.953125 0
-0.921875 -0.953125 0
-0.921875 -0.96875 0
-0.90625 -0.96875 0
-0.921875 -0.953125 0
-0.90625 -0.953125 0
-0.9375 -0.953125 0
-0.921875 -0.953125 0
-0.9375 -0.9375 0
-0.921875 -0.9375 0
-0.921875 -0.953125 0
-0.90625 -0.953125 0
-0.921875 -0.9375 0
-0.90625 -0.9375 0
-0.90625 -0.96875 0
-0.890625 -0.96875 0
-0.90625 -0.953125 0
-0.890625 -0.953125 0
-0.890625 -0.96875 0
-0.875 -0.96875 0
-0.890625 -0.953125 0
-0.875 -0.953125 0
-0.90625 -0.953125 0
-0.890625 -0.953125 0
-0.90625 -0.9375 0
-0.890625 -0.9375 0
-0.890625 -0.953125 0
-0.875 -0.953125 0
-0.890625 -0.9375 0
-0.875 -0.9375 0
-1 -0.9375 0
-0.984375 -0.9375 0
-1 -0.921875 0
-0.984375 -0.921875 0
-0.984375 -0.9375 0
-0.96875 -0.9375 0
-0.984375 -0.921875 0
-0.96875 -0.921875 0
-1 -0.921875 0
-0.984375 -0.921875 0
-1 -0.90625 0
-0.984375 -0.90625 0
-0.984375 -0.921875 0
-0.96875 -0.921875 0
-0.984375 -0.90625 0
-0.96875 -0.90625 0
-0.96875 -0.9375 0
-0.953125 -0.9375 0
-0.96875 -0.921875 0
-0.953125 -0.921875 0
-0.953125 -0.9375 0
-0.9375 -0.9375 0
-0.953125 -0.921875 0
-0.9375 -0.921875 0
-0.96875 -0.921875 0
-0.953125 -0.921875 0
-0.96875 -0.90625 0
-0.953125 -0.90625 0
-0.953125 -0.921875 0
-0.9375 -0.921875 0
-0.953125 -0.90625 0
-0.9375 -0.90625 0
-1 -0.90625 0
-0.984375 -0.90625 0
-1 -0.890625 0
-0.984375 -0.890625 0
-0.984375 -0.90625 0
-0.96875 -0.90625 0
-0.984375 -0.890625 0
-0.96875 -0.890625 0
-1 -0.890625 0
-0.984375 -0.890625 0
-1 -0.875 0
-0.984375 -0.875 0
-0.984375 -0.890625 0
-0.96875 -0.890625 0
-0.984375 -0.875 0
-0.96875 -0.875 0
-0.96875 -0.90625 0
-0.953125 -0.90625 0
-0.96875 -0.890625 0
-0.953125 -0.890625 0
-0.953125 -0.90625 0
-0.9375 -0.90625 0
-0.953125 -0.890625 0
-0.9375 -0.890625 0
-0.96875 -0.890625 0
-0.953125 -0.890625 0
-0.96875 -0.875 0
-0.953125 -0.875 0
-0.953125 -0.890625 0
-0.9375 -0.890625 0
-0.953125 -0.875 0
-0.9375 -0.875 0
-0.9375 -0.9375 0
-0.921875 -0.9375 0
-0.9375 -0.921875 0
-0.921875 -0.921875 0
-0.921875 -0.9375 0
-0.90625 -0.9375 0
-0.921875 -0.921875 0
-0.90625 -0.921875 0
-0.9375 -0.921875 0
-0.921875 -0.921875 0
-0.9375 -0.90625 0
-0.921875 -0.90625 0
-0.921875 -0.921875 0
-0.90625 -0.921875 0
-0.921875 -0.90625 0
-0.90625 -0.90625 0
-0.90625 -0.9375 0
-0.890625 -0.9375 0
-0.90625 -0.921875 0
-0.890625 -0.921875 0
-0.890625 -0.9375 0
-0.875 -0.9375 0
-0.890625 -0.921875 0
-0.875 -0.921875 0
-0.90625 -0.921875 0
-0.890625 -0.921875 0
-0.90625 -0.90625 0
-0.890625 -0.90625 0
-0.890625 -0.921875 0
-0.875 -0.921875 0
-0.890625 -0.90625 0
-0.875 -0.90625 0
-0.9375 -0.90625 0
-0.921875 -0.90625 0
-0.9375 -0.890625 0
-0.921875 -0.890625 0
-0.921875 -0.90625 0
-0.90625 -0.90625 0
-0.921875 -0.890625 0
-0.90625 -0.890625 0
-0.9375 -0.890625 0
-0.921875 -0.890625 0
-0.9375 -0.875 0
-0.921875 -0.875 0
-0.921875 -0.890625 0
-0.90625 -0.890625 0
-0.921875 -0.875 0
-0.90625 -0.875 0
-0.90625 -0.90625 0
-0.890625 -0.90625 0
-0.90625 -0.890625 0
-0.890625 -0.890625 0
-0.890625 -0.90625 0
-0.875 -0.90625 0
-0.890625 -0.890625 0
-0.875 -0.890625 0
-0.90625 -0.890625 0
-0.890625 -0.890625 0
-0.90625 -0.875 0
-0.890625 -0.875 0
-0.890625 -0.890625 0
-0.875 -0.890625 0
-0.890625 -0.875 0
-0.875 -0.875 0
-0.875 -1 0
-0.859375 -1 0
-0.875 -0.984375 0
-0.859375 -0.984375 0
-0.859375 -1 0
-0.84375 -1 0
-0.859375 -0.984375 0
-0.84375 -0.984375 0
-0.875 -0.984375 0
-0.859375 -0.984375 0
-0.875 -0.96875 0
-0.859375 -0.96875 0
-0.859375 -0.984375 0
-0.84375 -0.984375 0
-0.859375 -0.96875 0
-0.84375 -0.96875 0
-0.84375 -1 0
-0.828125 -1 0
-0.84375 -0.984375 0
-0.828125 -0.984375 0
-0.828125 -1 0
-0.8125 -1 0
-0.828125 -0.984375 0
-0.8125 -0.984375 0
-0.84375 -0.984375 0
-0.828125 -0.984375 0
-0.84375 -0.96875 0
-0.828125 -0.96875 0
-0.828125 -0.984375 0
-0.8125 -0.984375 0
-0.828125 -0.96875 0
-0.8125 -0.96875 0
-0.875 -0.96875 0
-0.859375 -0.96875 0
-0.875 -0.953125 0
-0.859375 -0.953125 0
-0.859375 -0.96875 0
-0.84375 -0.96875 0
-0.859375 -0.953125 0
-0.84375 -0.953125 0
-0.875 -0.953125 0
-0.859375 -0.953125 0
-0.875 -0.9375 0
-0.859375 -0.9375 0
-0.859375 -0.953125 0
-0.84375 -0.953125 0
-0.859375 -0.9375 0
-0.84375 -0.9375 0
-0.84375 -0.96875 0
-0.828125 -0.96875 0
-0.84375 -0.953125 0
-0.828125 -0.953125 0
-0.828125 -0.96875 0
-0.8125 -0.96875 0
-0.828125 -0.953125 0
-0.8125 -0.953125 0
-0.84375 -0.953125 0
-0.828125 -0.953125 0
-0.84375 -0.9375 0
-0.828125 -0.9375 0
-0.828125 -0.953125 0
-0.8125 -0.953125 0
-0.828125 -0.9375 0
-0.8125 -0.9375 0
-0.8125 -1 0
-0.796875 -1 0
-0.8125 -0.984375 0
-0.796875 -0.984375 0
-0.796875 -1 0
-0.78125 -1 0
-0.796875 -0.984375 0
-0.78125 -0.984375 0
-0.8125 -0.984375 0
-0.796875 -0.984375 0
-0.8125 -0.96875 0
-0.796875 -0.96875 0
-0.796875 -0.984375 0
-0.78125 -0.984375 0
-0.796875 -0.96875 0
-0.78125 -0.96875 0
-0.78125 -1 0
-0.765625 -1 0
-0.78125 -0.984375 0
-0.765625 -0.984375 0
-0.765625 -1 0
-0.75 -1 0
-0.765625 -0.984375 0
-0.75 -0.984375 0
-0.78125 -0.984375 0
-0.765625 -0.984375 0
-0.78125 -0.96875 0
-0.765625 -0.96875 0
-0.765625 -0.984375 0
-0.75 -0.984375 0
-0.765625 -0.96875 0
-0.75 -0.96875 0
-0.8125 -0.96875 0
-0.796875 -0.96875 0
-0.8125 -0.953125 0
-0.796875 -0.953125 0
-0.796875 -0.96875 0
-0.78125 -0.96875 0
-0.796875 -0.953125 0
-0.78125 -0.953125 0
-0.8125 -0.953125 0
-0.796875 -0.953125 0
-0.8125 -0.9375 0
-0.796875 -0.9375 0
-0.796875 -0.953125 0
-0.78125 -0.953125 0
-0.796875 -0.9375 0
-0.78125 -0.9375 0
-0.78125 -0.96875 0
-0.765625 -0.96875 0
-0.78125 -0.953125 0
-0.765625 -0.953125 0
-0.765625 -0.96875 0
-0.75 -0.96875 0
-0.765625 -0.953125 0
-0.75 -0.953125 0
-0.78125 -0.953125 0
-0.765625 -0.953125 0
-0.78125 -0.9375 0
-0.765625 -0.9375 0
-0.765625 -0.953125 0
-0.75 -0.953125 0
-0.765625 -0.9375 0
-0.75 -0.9375 0
-0.875 -0.9375 0
-0.859375 -0.9375 0
-0.875 -0.921875 0
-0.859375 -0.921875 0
-0.859375 -0.9375 0
-0.84375 -0.9375 0
-0.859375 -0.921875 0
-0.84375 -0.921875 0
-0.875 -0.921875 0
-0.859375 -0.921875 0
-0.875 -0.90625 0
-0.859375 -0.90625 0
-0.859375 -0.921875 0
-0.84375 -0.921875 0
-0.859375 -0.90625 0
-0.84375 -0.90625 0
-0.84375 -0.9375 0
-0.828125 -0.9375 0
-0.84375 -0.921875 0
-0.828125 -0.921875 0
-0.828125 -0.9375 0
-0.8125 -0.9375 0
-0.828125 -0.921875 0
-0.8125 -0.921875 0
-0.84375 -0.921875 0
-0.828125 -0.921875 0
-0.84375 -0.90625 0
-0.828125 -0.90625 0
-0.828125 -0.921875 0
-0.8125 -0.921875 0
-0.828125 -0.90625 0
-0.8125 -0.90625 0
-0.875 -0.90625 0
-0.859375 -0.90625 0
-0.875 -0.890625 0
-0.859375 -0.890625 0
-0.859375 -0.90625 0
-0.84375 -0.90625 0
-0.859375 -0.890625 0
-0.84375 -0.890625 0
-0.875 -0.890625 0
-0.859375 -0.890625 0
-0.875 -0.875 0
-0.859375 -0.875 0
-0.859375 -0.890625 0
-0.84375 -0.890625 0
-0.859375 -0.875 0
-0.84375 -0.875 0
-0.84375 -0.90625 0
-0.828125 -0.90625 0
-0.84375 -0.890625 0
-0.828125 -0.890625 0
-0.828125 -0.90625 0
-0.8125 -0.90625 0
-0.828125 -0.890625 0
-0.8125 -0.890625 0
-0.84375 -0.890625 0
-0.828125 -0.890625 0
-0.84375 -0.875 0
-0.828125 -0.875 0
-0.828125 -0.890625 0
-0.8125 -0.890625 0
-0.828125 -0.875 0
-0.8125 -0.875 0
-0.8125 -0.9375 0
-0.796875 -0.9375 0
-0.8125 -0.921875 0
-0.796875 -0.921875 0
-0.796875 -0.9375 0
-0.78125 -0.9375 0
-0.796875 -0.921875 0
-0.78125 -0.921875 0
-0.8125 -0.921875 0
-0.796875 -0.921875 0
-0.8125 -0.90625 0
-0.796875 -0.90625 0
-0.796875 -0.921875 0
-0.78125 -0.921875 0
-0.796875 -0.90625 0
-0.78125 -0.90625 0
-0.78125 -0.9375 0
-0.765625 -0.9375 0
-0.78125 -0.921875 0
-0.765625 -0.921875 0
-0.765625 -0.9375 0
-0.75 -0.9375 0
-0.765625 -0.921875 0
-0.75 -0.921875 0
-0.78125 -0.921875 0
-0.765625 -0.921875 0
-0.78125 -0.90625 0
-0.765625 -0.90625 0
-0.765625 -0.921875 0
-0.75 -0.921875 0
-0.765625 -0.90625 0
-0.75 -0.90625 0
-0.8125 -0.90625 0
-0.796875 -0.90625 0
-0.8125 -0.890625 0
-0.796875 -0.890625 0
-0.796875 -0.90625 0
[...]
  <PointData Scalars="scalars">
    <DataArray type="Float32" Name="U" format="ascii">
0 0 0 0.000164134 0 0 0.000164134 0.00033288 0 0.000164134 0 0.000348766 0.000164134 0.00033288 0.000348766 0.00070208 0 0 0.00033288 0.000512306 0 0 0.000512306 0.000710817 0.00033288 0.000512306 0.00070208 0.00106248 0.000512306 0.000710817 0.00106248 0.00142913 0 0.000348766 0 0.000451767 0.000348766 0.00070208 0.000451767 0.000910218 0 0.000451767 0 0.000587864 0.000451767 0.000910218 0.000587864 0.00118728 0.00070208 0.00106248 0.000910218 0.00138294 0.00106248 0.00142913 0.00138294 0.00187918 0.000910218 0.00138294 0.00118728 0.00181061 0.00138294 0.00187918 0.00181061 0.00247141 0 0 0.000710817 0.000938393 0 0 0.000938393 0.00120271 0.000710817 0.000938393 0.00142913 0.00179823 0.000938393 0.00120271 0.00179823 0.00216703 0 0 0.00120271 0.00150157 0 0 0.00150157 0.00181446 0.00120271 0.00150157 0.00216703 0.00254198 0.00150157 0.00181446 0.00254198 0.00294817 0.00142913 0.00179823 0.00187918 0.00241013 0.00179823 0.00216703 0.00241013 0.00298818 0.00187918 0.00241013 0.00247141 0.00318366 0.00241013 0.00298818 0.00318366 0.00395888 0.00216703 0.00254198 0.00298818 0.00362494 0.00254198 0.00294817 0.00362494 0.00432833 0.00298818 0.00362494 0.00395888 0.00480094 0.00362494 0.00432833 0.00480094 0.00570118 0 0.000587864 0 0.00073644 0.000587864 0.00118728 0.00073644 0.00148381 0 0.00073644 0 0.000798269 0.00073644 0.00148381 0.000798269 0.0016087 0.00118728 0.00181061 0.00148381 0.00225123 0.00181061 0.00247141 0.00225123 0.00304491 0.00148381 0.00225123 0.0016087 0.00244436 0.00225123 0.00304491 0.00244436 0.00331969 0 0.000798269 0 0.000880582 0.000798269 0.0016087 0.000880582 0.00177329 0 0.000880582 0 0.000990638 0.000880582 0.00177329 0.000990638 0.00199078 0.0016087 0.00244436 0.00177329 0.00269099 0.00244436 0.00331969 0.00269099 0.00364798 0.00177329 0.00269099 0.00199078 0.00300836 0.00269099 0.00364798 0.00300836 0.00404866 0.00247141 0.00318366 0.00304491 0.00386868 0.00318366 0.00395888 0.00386868 0.00472765 0.00304491 0.00386868 0.00331969 0.00424999 0.00386868 0.00472765 0.00424999 0.00524977 0.00395888 0.00480094 0.00472765 0.00563484 0.00480094 0.00570118 0.00563484 0.00661721 0.00472765 0.00563484 0.00524977 0.00633082 0.00563484 0.00661721 0.00633082 0.00750215 0.00331969 0.00424999 0.00364798 0.00466022 0.00424999 0.00524977 0.00466022 0.00574366 0.00364798 0.00466022 0.00404866 0.00511483 0.00466022 0.00574366 0.00511483 0.00621192 0.00524977 0.00633082 0.00574366 0.00690919 0.00633082 0.00750215 0.00690919 0.00815564 0.00574366 0.00690919 0.00621192 0.00735461 0.00690919 0.00815564 0.00735461 0.00857377 0 0 0.00181446 0.00210168 0 0 0.00210168 0.00232204 0.00181446 0.00210168 0.00294817 0.00343104 0.00210168 0.00232204 0.00343104 0.00403869 0 0 0.00232204 0.00247133 0 0 0.00247133 0.00261874 0.00232204 0.00247133 0.00403869 0.00478269 0.00247133 0.00261874 0.00478269 0.00560068 0.00294817 0.00343104 0.00432833 0.00510036 0.00343104 0.00403869 0.00510036 0.0059378 0.00432833 0.00510036 0.00570118 0.00664014 0.00510036 0.0059378 0.00664014 0.00760291 0.00403869 0.00478269 0.0059378 0.00683664 0.00478269 0.00560068 0.00683664 0.00779857 0.0059378 0.00683664 0.00760291 0.00860615 0.00683664 0.00779857 0.00860615 0.00971716 0 0 0.00261874 0.00289366 0 0 0.00289366 0.00339002 0.00261874 0.00289366 0.00560068 0.00636877 0.00289366 0.00339002 0.00636877 0.00699565 0 0 0.00339002 0.00403815 0 0 0.00403815 0.00459084 0.00339002 0.00403815 0.00699565 0.00754599 0.00403815 0.00459084 0.00754599 0.00824843 0.00560068 0.00636877 0.00779857 0.00883373 0.00636877 0.00699565 0.00883373 0.00995518 0.00779857 0.00883373 0.00971716 0.0110347 0.00883373 0.00995518 0.0110347 0.0126205 0.00699565 0.00754599 0.00995518 0.0111723 0.00754599 0.00824843 0.0111723 0.0124985 0.00995518 0.0111723 0.0126205 0.0144215 0.0111723 0.0124985 0.0144215 0.0162645 0.00570118 0.00664014 0.00661721 0.00771356 0.00664014 0.00760291 0.00771356 0.00895847 0.00661721 0.00771356 0.00750215 0.00877264 0.00771356 0.00895847 0.00877264 0.0101527 0.00760291 0.00860615 0.00895847 0.0103574 0.00860615 0.00971716 0.0103574 0.0118737 0.00895847 0.0103574 0.0101527 0.0116484 0.0103574 0.0118737 0.0116484 0.0132487 0.00750215 0.00877264 0.00815564 0.00946817 0.00877264 0.0101527 0.00946817 0.0108333 0.00815564 0.00946817 0.00857377 0.00991052 0.00946817 0.0108333 0.00991052 0.0113915 0.0101527 0.0116484 0.0108333 0.0122697 0.0116484 0.0132487 0.0122697 0.0138459 0.0108333 0.0122697 0.0113915 0.0130029 0.0122697 0.0138459 0.0130029 0.0147055 0.00971716 0.0110347 0.0118737 0.0134483 0.0110347 0.0126205 0.0134483 0.0150499 0.0118737 0.0134483 0.0132487 0.0149254 0.0134483 0.0150499 0.0149254 0.0166613 0.0126205 0.0144215 0.0150499 0.0167172 0.0144215 0.0162645 0.0167172 0.0185428 0.0150499 0.0167172 0.0166613 0.0184851 0.0167172 0.0185428 0.0184851 0.0204692 0.0132487 0.0149254 0.0138459 0.0156438 0.0149254 0.0166613 0.0156438 0.0176816 0.0138459 0.0156438 0.0147055 0.016503 0.0156438 0.0176816 0.016503 0.0184884 0.0166613 0.0184851 0.0176816 0.0198871 0.0184851 0.0204692 0.0198871 0.0221852 0.0176816 0.0198871 0.0184884 0.0207654 0.0198871 0.0221852 0.0207654 0.0233003 0 0.000990638 0 0.00106893 0.000990638 0.00199078 0.00106893 0.00214752 0 0.00106893 0 0.00119861 0.00106893 0.00214752 0.00119861 0.00240239 0.00199078 0.00300836 0.00214752 0.00324662 0.00300836 0.00404866 0.00324662 0.00437868 0.00214752 0.00324662 0.00240239 0.00361683 0.00324662 0.00437868 0.00361683 0.00484897 0 0.00119861 0 0.00135792 0.00119861 0.00240239 0.00135792 0.00272199 0 0.00135792 0 0.00147045 0.00135792 0.00272199 0.00147045 0.00294168 0.00240239 0.00361683 0.00272199 0.00409722 0.00361683 0.00484897 0.00409722 0.00548558 0.00272199 0.00409722 0.00294168 0.0044158 0.00409722 0.00548558 0.0044158 0.00589775 0.00404866 0.00511483 0.00437868 0.0055561 0.00511483 0.00621192 0.0055561 0.00678704 0.00437868 0.0055561 0.00484897 0.0061102 0.0055561 0.00678704 0.0061102 0.00741915 0.00621192 0.00735461 0.00678704 0.00807104 0.00735461 0.00857377 0.00807104 0.0094018 0.00678704 0.00807104 0.00741915 0.00879973 0.00807104 0.0094018 0.00879973 0.0102682 0.00484897 0.0061102 0.00548558 0.00688373 0.0061102 0.00741915 0.00688373 0.00828339 0.00548558 0.00688373 0.00589775 0.00739529 0.00688373 0.00828339 0.00739529 0.00891438 0.00741915 0.00879973 0.00828339 0.00967934 0.00879973 0.0102682 0.00967934 0.0110854 0.00828339 0.00967934 0.00891438 0.0104477 0.00967934 0.0110854 0.0104477 0.011964 0 0.00147045 0 0.00153609 0.00147045 0.00294168 0.00153609 0.00307258 0 0.00153609 0 0.00153 0.00153609 0.00307258 0.00153 0.00306584 0.00294168 0.0044158 0.00307258 0.00460797 0.0044158 0.00589775 0.00460797 0.00613804 0.00307258 0.00460797 0.00306584 0.004615 0.00460797 0.00613804 0.004615 0.00618647 0 0.00153 0 0.00154131 0.00153 0.00306584 0.00154131 0.00308262 0 0.00154131 0 0.00148237 0.00154131 0.00308262 0.00148237 0.00296831 0.00306584 0.004615 0.00308262 0.00462311 0.004615 0.00618647 0.00462311 0.00616256 0.00308262 0.00462311 0.00296831 0.00446034 0.00462311 0.00616256 0.00446034 0.00595646 0.00589775 0.00739529 0.00613804 0.0076581 0.00739529 0.00891438 0.0076581 0.00917097 0.00613804 0.0076581 0.00618647 0.00778678 0.0076581 0.00917097 0.00778678 0.00941152 0.00891438 0.0104477 0.00917097 0.0106984 0.0104477 0.011964 0.0106984 0.0122817 0.00917097 0.0106984 0.00941152 0.0110393 0.0106984 0.0122817 0.0110393 0.0126428 0.00618647 0.00778678 0.00616256 0.00770521 0.00778678 0.00941152 0.00770521 0.00926523 0.00616256 0.00770521 0.00595646 0.00744697 0.00770521 0.00926523 0.00744697 0.00891272 0.00941152 0.0110393 0.00926523 0.0108619 0.0110393 0.0126428 0.0108619 0.0124971 0.00926523 0.0108619 0.00891272 0.0103405 0.0108619 0.0124971 0.0103405 0.0117498 0.00857377 0.00991052 0.0094018 0.010784 0.00991052 0.0113915 0.010784 0.0122554 0.0094018 0.010784 0.0102682 0.0118124 0.010784 0.0122554 0.0118124 0.0133878 0.0113915 0.0130029 0.0122554 0.0138809 0.0130029 0.0147055 0.0138809 0.0156942 0.0122554 0.0138809 0.0133878 0.0149587 0.0138809 0.0156942 0.0149587 0.0165659 0.0102682 0.0118124 0.0110854 0.0125439 0.0118124 0.0133878 0.0125439 0.0141 0.0110854 0.0125439 0.011964 0.0134205 0.0125439 0.0141 0.0134205 0.014815 0.0133878 0.0149587 0.0141 0.015739 0.0149587 0.0165659 0.015739 0.0173618 0.0141 0.015739 0.014815 0.0162397 0.015739 0.0173618 0.0162397 0.0178373 0.0147055 0.016503 0.0156942 0.0176354 0.016503 0.0184884 0.0176354 0.019595 0.0156942 0.0176354 0.0165659 0.0183183 0.0176354 0.019595 0.0183183 0.0202528 0.0184884 0.0207654 0.019595 0.0215691 0.0207654 0.0233003 0.0215691 0.0237102 0.019595 0.0215691 0.0202528 0.0222286 0.0215691 0.0237102 0.0222286 0.0241118 0.0165659 0.0183183 0.0173618 0.0188946 0.0183183 0.0202528 0.0188946 0.0204624 0.0173618 0.0188946 0.0178373 0.0196311 0.0188946 0.0204624 0.0196311 0.0214354 0.0202528 0.0222286 0.0204624 0.0223344 0.0222286 0.0241118 0.0223344 0.0245591 0.0204624 0.0223344 0.0214354 0.0230875 0.0223344 0.0245591 0.0230875 0.0247488 0.011964 0.0134205 0.0122817 0.0139519 0.0134205 0.014815 0.0139519 0.0156757 0.0122817 0.0139519 0.0126428 0.0142254 0.0139519 0.0156757 0.0142254 0.0158482 0.014815 0.0162397 0.0156757 0.0173465 0.0162397 0.0178373 0.0173465 0.0188909 0.0156757 0.0173465 0.0158482 0.0175749 0.0173465 0.0188909 0.0175749 0.0193402 0.0126428 0.0142254 0.0124971 0.0141218 0.0142254 0.0158482 0.0141218 0.0156506 0.0124971 0.0141218 0.0117498 0.0132136 0.0141218 0.0156506 0.0132136 0.0148036 0.0158482 0.0175749 0.0156506 0.0170649 0.0175749 0.0193402 0.0170649 0.0185168 0.0156506 0.0170649 0.0148036 0.0164834 0.0170649 0.0185168 0.0164834 0.0180834 0.0178373 0.0196311 0.0188909 0.0204039 0.0196311 0.0214354 0.0204039 0.0220554 0.0188909 0.0204039 0.0193402 0.0209305 0.0204039 0.0220554 0.0209305 0.0222571 0.0214354 0.0230875 0.0220554 0.0237682 0.0230875 0.0247488 0.0237682 0.0252117 0.0220554 0.0237682 0.0222571 0.0236047 0.0237682 0.0252117 0.0236047 0.0252923 0.0193402 0.0209305 0.0185168 0.0202093 0.0209305 0.0222571 0.0202093 0.0220757 0.0185168 0.0202093 0.0180834 0.0195278 0.0202093 0.0220757 0.0195278 0.0210304 0.0222571 0.0236047 0.0220757 0.0237775 0.0236047 0.0252923 0.0237775 0.0252498 0.0220757 0.0237775 0.0210304 0.0227989 0.0237775 0.0252498 0.0227989 0.0245417 0 0 0.00459084 0.00483392 0 0 0.00483392 0.00488133 0.00459084 0.00483392 0.00824843 0.00929274 0.00483392 0.00488133 0.00929274 0.0105763 0 0 0.00488133 0.00517833 0 0 0.00517833 0.00604568 0.00488133 0.00517833 0.0105763 0.011755 0.00517833 0.00604568 0.011755 0.0126685 0.00824843 0.00929274 0.0124985 0.0139671 0.00929274 0.0105763 0.0139671 0.0155998 0.0124985 0.0139671 0.0162645 0.0179819 0.0139671 0.0155998 0.0179819 0.0196012 0.0105763 0.011755 0.0155998 0.0173097 0.011755 0.0126685 0.0173097 0.0188811 0.0155998 0.0173097 0.0196012 0.0213818 0.0173097 0.0188811 0.0213818 0.023539 0 0 0.00604568 0.00722958 0 0 0.00722958 0.00813021 0.00604568 0.00722958 0.0126685 0.0136111 0.00722958 0.00813021 0.0136111 0.0149385 0 0 0.00813021 0.00854366 0 0 0.00854366 0.0088891 0.00813021 0.00854366 0.0149385 0.0164867 0.00854366 0.0088891 0.0164867 0.0177848 0.0126685 0.0136111 0.0188811 0.0201978 0.0136111 0.0149385 0.0201978 0.0215165 0.0188811 0.0201978 0.023539 0.025901 0.0201978 0.0215165 0.025901 0.0280557 0.0149385 0.0164867 0.0215165 0.0232722 0.0164867 0.0177848 0.0232722 0.0254726 0.0215165 0.0232722 0.0280557 0.0299703 0.0232722 0.0254726 0.0299703 0.0321095 0.0162645 0.0179819 0.0185428 0.0205845 0.0179819 0.0196012 0.0205845 0.022778 0.0185428 0.0205845 0.0204692 0.022685 0.0205845 0.022778 0.022685 0.0251646 0.0196012 0.0213818 0.022778 0.0250018 0.0213818 0.023539 0.0250018 0.0273041 0.022778 0.0250018 0.0251646 0.0278712 0.0250018 0.0273041 0.0278712 0.030675 0.0204692 0.022685 0.0221852 0.0245995 0.022685 0.0251646 0.0245995 0.0272142 0.0221852 0.0245995 0.0233003 0.0259221 0.0245995 0.0272142 0.0259221 0.0285206 0.0251646 0.0278712 0.0272142 0.0300425 0.0278712 0.030675 0.0300425 0.0329867 0.0272142 0.0300425 0.0285206 0.0311695 0.0300425 0.0329867 0.0311695 0.0340169 0.023539 0.025901 0.0273041 0.0299511 0.025901 0.0280557 0.0299511 0.0329988 0.0273041 0.0299511 0.030675 0.0334487 0.0299511 0.0329988 0.0334487 0.0362848 0.0280557 0.0299703 0.0329988 0.0359305 0.0299703 0.0321095 0.0359305 0.0382485 0.0329988 0.0359305 0.0362848 0.0394245 0.0359305 0.0382485 0.0394245 0.0428025 0.030675 0.0334487 0.0329867 0.0359143 0.0334487 0.0362848 0.0359143 0.0388002 0.0329867 0.0359143 0.0340169 0.0371713 0.0359143 0.0388002 0.0371713 0.0406523 0.0362848 0.0394245 0.0388002 0.0419288 0.0394245 0.0428025 0.0419288 0.0457402 0.0388002 0.0419288 0.0406523 0.044253 0.0419288 0.0457402 0.044253 0.0476836 0 0 0.0088891 0.00956412 0 0 0.00956412 0.0104599 0.0088891 0.00956412 0.0177848 0.0188393 0.00956412 0.0104599 0.0188393 0.0201259 0 0 0.0104599 0.0113259 0 0 0.0113259 0.0120828 0.0104599 0.0113259 0.0201259 0.021683 0.0113259 0.0120828 0.021683 0.0229244 0.0177848 0.0188393 0.0254726 0.027574 0.0188393 0.0201259 0.027574 0.0291749 0.0254726 0.027574 0.0321095 0.0346207 0.027574 0.0291749 0.0346207 0.0369398 0.0201259 0.021683 0.0291749 0.0305032 0.021683 0.0229244 0.0305032 0.032013 0.0291749 0.0305032 0.0369398 0.0387947 0.0305032 0.032013 0.0387947 0.0408928 0 0 0.0120828 0.0124825 0 0 0.0124825 0.0122173 0.0120828 0.0124825 0.0229244 0.0235973 0.0124825 0.0122173 0.0235973 0.0241761 0 0 0.0122173 0.0118042 0 0 0.0118042 0.0123676 0.0122173 0.0118042 0.0241761 0.0250515 0.0118042 0.0123676 0.0250515 0.026088 0.0229244 0.0235973 0.032013 0.0339031 0.0235973 0.0241761 0.0339031 0.0361022 0.032013 0.0339031 0.0408928 0.0437677 0.0339031 0.0361022 0.0437677 0.0467561 0.0241761 0.0250515 0.0361022 0.0381846 0.0250515 0.026088 0.0381846 0.039464 0.0361022 0.0381846 0.0467561 0.049021 0.0381846 0.039464 0.049021 0.050626 0.0321095 0.0346207 0.0382485 0.0403942 0.0346207 0.0369398 0.0403942 0.0432679 0.0382485 0.0403942 0.0428025 0.0460733 0.0403942 0.0432679 0.0460733 0.0493199 0.0369398 0.0387947 0.0432679 0.0467895 0.0387947 0.0408928 0.0467895 0.049982 0.0432679 0.0467895 0.0493199 0.0529347 0.0467895 0.049982 0.0529347 0.0565294 0.0428025 0.0460733 0.0457402 0.0500337 0.0460733 0.0493199 0.0500337 0.0538008 0.0457402 0.0500337 0.0476836 0.0510715 0.0500337 0.0538008 0.0510715 0.0547013 0.0493199 0.0529347 0.0538008 0.0566727 0.0529347 0.0565294 0.0566727 0.0596329 0.0538008 0.0566727 0.0547013 0.0582324 0.0566727 0.0596329 0.0582324 0.0613688 0.0408928 0.0437677 0.049982 0.0524868 0.0437677 0.0467561 0.0524868 0.0548102 0.049982 0.0524868 0.0565294 0.0592327 0.0524868 0.0548102 0.0592327 0.0612698 0.0467561 0.049021 0.0548102 0.0572318 0.049021 0.050626 0.0572318 0.0595969 0.0548102 0.0572318 0.0612698 0.0636601 0.0572318 0.0595969 0.0636601 0.0664866 0.0565294 0.0592327 0.0596329 0.0632176 0.0592327 0.0612698 0.0632176 0.0665082 0.0596329 0.0632176 0.0613688 0.0648174 0.0632176 0.0665082 0.0648174 0.0689286 0.0612698 0.0636601 0.0665082 0.0690031 0.0636601 0.0664866 0.0690031 0.0715039 0.0665082 0.0690031 0.0689286 0.0726457 0.0690031 0.0715039 0.0726457 0.0753822 0.0233003 0.0259221 0.0237102 0.026128 0.0259221 0.0285206 0.026128 0.028724 0.0237102 0.026128 0.0241118 0.0260871 0.026128 0.028724 0.0260871 0.0285227 0.0285206 0.0311695 0.028724 0.0314066 0.0311695 0.0340169 0.0314066 0.0343399 0.028724 0.0314066 0.0285227 0.0314092 0.0314066 0.0343399 0.0314092 0.0343003 0.0241118 0.0260871 0.0245591 0.0268013 0.0260871 0.0285227 0.0268013 0.0288127 0.0245591 0.0268013 0.0247488 0.0266766 0.0268013 0.0288127 0.0266766 0.0286723 0.0285227 0.0314092 0.0288127 0.030848 0.0314092 0.0343003 0.030848 0.0331735 0.0288127 0.030848 0.0286723 0.0303299 0.030848 0.0331735 0.0303299 0.0319271 0.0340169 0.0371713 0.0343399 0.0376752 0.0371713 0.0406523 0.0376752 0.0412005 0.0343399 0.0376752 0.0343003 0.0369914 0.0376752 0.0412005 0.0369914 0.0397443 0.0406523 0.044253 0.0412005 0.0445832 0.044253 0.0476836 0.0445832 0.047691 0.0412005 0.0445832 0.0397443 0.0427421 0.0445832 0.047691 0.0427421 0.0459713 0.0343003 0.0369914 0.0331735 0.0355405 0.0369914 0.0397443 0.0355405 0.0378203 0.0331735 0.0355405 0.0319271 0.0341463 0.0355405 0.0378203 0.0341463 0.036803 0.0397443 0.0427421 0.0378203 0.0405002 0.0427421 0.0459713 0.0405002 0.0438053 0.0378203 0.0405002 0.036803 0.0392389 0.0405002 0.0438053 0.0392389 0.0417095 0.0247488 0.0266766 0.0252117 0.0263915 0.0266766 0.0286723 0.0263915 0.0278857 0.0252117 0.0263915 0.0252923 0.0270738 0.0263915 0.0278857 0.0270738 0.0284929 0.0286723 0.0303299 0.0278857 0.029953 0.0303299 0.0319271 0.029953 0.0319832 0.0278857 0.029953 0.0284929 0.0298329 0.029953 0.0319832 0.0298329 0.0316681 0.0252923 0.0270738 0.0252498 0.0269002 0.0270738 0.0284929 0.0269002 0.0287581 0.0252498 0.0269002 0.0245417 0.0258478 0.0269002 0.0287581 0.0258478 0.0270532 0.0284929 0.0298329 0.0287581 0.03016 0.0298329 0.0316681 0.03016 0.0310217 0.0287581 0.03016 0.0270532 0.0286283 0.03016 0.0310217 0.0286283 0.0300136 0.0319271 0.0341463 0.0319832 0.0336649 0.0341463 0.036803 0.0336649 0.0356768 0.0319832 0.0336649 0.0316681 0.0335446 0.0336649 0.0356768 0.0335446 0.0347975 0.036803 0.0392389 0.0356768 0.0381236 0.0392389 0.0417095 0.0381236 0.040197 0.0356768 0.0381236 0.0347975 0.0361742 0.0381236 0.040197 0.0361742 0.0381319 0.0316681 0.0335446 0.0310217 0.0322341 0.0335446 0.0347975 0.0322341 0.0337272 0.0310217 0.0322341 0.0300136 0.0305602 0.0322341 0.0337272 0.0305602 0.0311224 0.0347975 0.0361742 0.0337272 0.0344117 0.0361742 0.0381319 0.0344117 0.0348961 0.0337272 0.0344117 0.0311224 0.0321723 0.0344117 0.0348961 0.0321723 0.0325289 0.0476836 0.0510715 0.047691 0.0506106 0.0510715 0.0547013 0.0506106 0.0538196 0.047691 0.0506106 0.0459713 0.049416 0.0506106 0.0538196 0.049416 0.0528771 0.0547013 0.0582324 0.0538196 0.057772 0.0582324 0.0613688 0.057772 0.0618703 0.0538196 0.057772 0.0528771 0.0563736 0.057772 0.0618703 0.0563736 0.0603817 0.0459713 0.049416 0.0438053 0.0473625 0.049416 0.0528771 0.0473625 0.0509512 0.0438053 0.0473625 0.0417095 0.0446971 0.0473625 0.0509512 0.0446971 0.0479543 0.0528771 0.0563736 0.0509512 0.0544549 0.0563736 0.0603817 0.0544549 0.0578835 0.0509512 0.0544549 0.0479543 0.0512289 0.0544549 0.0578835 0.0512289 0.054295 0.0613688 0.0648174 0.0618703 0.0653387 0.0648174 0.0689286 0.0653387 0.0689101 0.0618703 0.0653387 0.0603817 0.0645736 0.0653387 0.0689101 0.0645736 0.0680294 0.0689286 0.0726457 0.0689101 0.0732618 0.0726457 0.0753822 0.0732618 0.0771074 0.0689101 0.0732618 0.0680294 0.0712444 0.0732618 0.0771074 0.0712444 0.07505 0.0603817 0.0645736 0.0578835 0.0616506 0.0645736 0.0680294 0.0616506 0.065345 0.0578835 0.0616506 0.054295 0.0570446 0.0616506 0.065345 0.0570446 0.0601969 0.0680294 0.0712444 0.065345 0.0680686 0.0712444 0.07505 0.0680686 0.0708537 0.065345 0.0680686 0.0601969 0.0637831 0.0680686 0.0708537 0.0637831 0.0668469 0.0417095 0.0446971 0.040197 0.0420589 0.0446971 0.0479543 0.0420589 0.0443445 0.040197 0.0420589 0.0381319 0.0395883 0.0420589 0.0443445 0.0395883 0.0405105 0.0479543 0.0512289 0.0443445 0.0467501 0.0512289 0.054295 0.0467501 0.0491162 0.0443445 0.0467501 0.0405105 0.0419434 0.0467501 0.0491162 0.0419434 0.0438856 0.0381319 0.0395883 0.0348961 0.0361739 0.0395883 0.0405105 0.0361739 0.0372738 0.0348961 0.0361739 0.0325289 0.0327454 0.0361739 0.0372738 0.0327454 0.0340622 0.0405105 0.0419434 0.0372738 0.0380577 0.0419434 0.0438856 0.0380577 0.0394766 0.0372738 0.0380577 0.0340622 0.0351084 0.0380577 0.0394766 0.0351084 0.0353518 0.054295 0.0570446 0.0491162 0.0516227 0.0570446 0.0601969 0.0516227 0.0543837 0.0491162 0.0516227 0.0438856 0.0461704 0.0516227 0.0543837 0.0461704 0.0486538 0.0601969 0.0637831 0.0543837 0.0579415 0.0637831 0.0668469 0.0579415 0.0616692 0.0543837 0.0579415 0.0486538 0.0509934 0.0579415 0.0616692 0.0509934 0.0536638 0.0438856 0.0461704 0.0394766 0.0410859 0.0461704 0