# vtk DataFile Version 3.0
#This file was generated by the deal.II library on 2021/4/23 at 0:45:45
ASCII
DATASET UNSTRUCTURED_GRID

FIELD FieldData 2
CYCLE 1 1 int
148
TIME 1 1 double
0.296
POINTS 7416 double
-1 -1 0
-0.75 -1 0
-1 -0.75 0
-0.75 -0.75 0
-0.75 -1 0
-0.5 -1 0
-0.75 -0.75 0
-0.5 -0.75 0
-1 -0.75 0
-0.75 -0.75 0
-1 -0.5 0
-0.75 -0.5 0
-1 0.75 0
-0.75 0.75 0
-1 1 0
-0.75 1 0
-0.75 -0.25 0
-0.625 -0.25 0
-0.75 -0.125 0
-0.625 -0.125 0
-0.625 -0.25 0
-0.5 -0.25 0
-0.625 -0.125 0
-0.5 -0.125 0
-0.625 -0.125 0
-0.5 -0.125 0
-0.625 0 0
-0.5 0 0
-0.5 -0.25 0
-0.375 -0.25 0
-0.5 -0.125 0
-0.375 -0.125 0
-0.5 -0.125 0
-0.375 -0.125 0
-0.5 0 0
-0.375 0 0
-0.375 -0.125 0
-0.25 -0.125 0
-0.375 0 0
-0.25 0 0
0.875 -1 0
1 -1 0
0.875 -0.875 0
1 -0.875 0
-1 0 0
-0.875 0 0
-1 0.125 0
-0.875 0.125 0
-0.875 0 0
-0.75 0 0
-0.875 0.125 0
-0.75 0.125 0
-1 0.125 0
-0.875 0.125 0
-1 0.25 0
-0.875 0.25 0
-0.875 0.125 0
-0.75 0.125 0
-0.875 0.25 0
-0.75 0.25 0
-0.75 0 0
-0.625 0 0
-0.75 0.125 0
-0.625 0.125 0
-0.25 -1 0
-0.125 -1 0
-0.25 -0.875 0
-0.125 -0.875 0
-0.125 -1 0
0 -1 0
-0.125 -0.875 0
0 -0.875 0
-0.5 -0.75 0
-0.375 -0.75 0
-0.5 -0.625 0
-0.375 -0.625 0
-0.5 -0.625 0
-0.375 -0.625 0
-0.5 -0.5 0
-0.375 -0.5 0
-0.375 -0.625 0
-0.25 -0.625 0
-0.375 -0.5 0
-0.25 -0.5 0
0.25 -1 0
0.375 -1 0
0.25 -0.875 0
0.375 -0.875 0
0.375 -1 0
0.5 -1 0
0.375 -0.875 0
0.5 -0.875 0
-1 0.25 0
-0.875 0.25 0
-1 0.375 0
-0.875 0.375 0
-1 0.375 0
-0.875 0.375 0
-1 0.5 0
-0.875 0.5 0
-0.5 -0.5 0
-0.375 -0.5 0
-0.5 -0.375 0
-0.375 -0.375 0
-0.375 -0.5 0
-0.25 -0.5 0
-0.375 -0.375 0
-0.25 -0.375 0
-0.5 -0.375 0
-0.375 -0.375 0
-0.5 -0.25 0
-0.375 -0.25 0
-0.375 -0.375 0
-0.25 -0.375 0
-0.375 -0.25 0
-0.25 -0.25 0
-0.75 0.25 0
-0.625 0.25 0
-0.75 0.375 0
-0.625 0.375 0
-0.625 0.25 0
-0.5 0.25 0
-0.625 0.375 0
-0.5 0.375 0
-0.75 0.375 0
-0.625 0.375 0
-0.75 0.5 0
-0.625 0.5 0
-0.625 0.375 0
-0.5 0.375 0
-0.625 0.5 0
-0.5 0.5 0
-0.25 0.125 0
-0.125 0.125 0
-0.25 0.25 0
-0.125 0.25 0
0 -1 0
0.125 -1 0
0 -0.875 0
0.125 -0.875 0
0.125 -1 0
0.25 -1 0
0.125 -0.875 0
0.25 -0.875 0
0.125 -0.875 0
0.25 -0.875 0
0.125 -0.75 0
0.25 -0.75 0
-1 0.5 0
-0.875 0.5 0
-1 0.625 0
-0.875 0.625 0
-1 0.625 0
-0.875 0.625 0
-1 0.75 0
-0.875 0.75 0
-0.875 0.625 0
-0.75 0.625 0
-0.875 0.75 0
-0.75 0.75 0
-0.25 0.25 0
-0.125 0.25 0
-0.25 0.375 0
-0.125 0.375 0
-0.125 0.25 0
0 0.25 0
-0.125 0.375 0
0 0.375 0
-0.25 0.375 0
-0.125 0.375 0
-0.25 0.5 0
-0.125 0.5 0
-0.125 0.375 0
0 0.375 0
-0.125 0.5 0
0 0.5 0
-0.75 -0.75 0
-0.625 -0.75 0
-0.75 -0.625 0
-0.625 -0.625 0
-0.625 -0.75 0
-0.5 -0.75 0
-0.625 -0.625 0
-0.5 -0.625 0
-0.75 -0.625 0
-0.625 -0.625 0
-0.75 -0.5 0
-0.625 -0.5 0
-0.625 -0.625 0
-0.5 -0.625 0
-0.625 -0.5 0
-0.5 -0.5 0
-0.5 -1 0
-0.375 -1 0
-0.5 -0.875 0
-0.375 -0.875 0
-0.375 -1 0
-0.25 -1 0
-0.375 -0.875 0
-0.25 -0.875 0
-0.5 -0.875 0
-0.375 -0.875 0
-0.5 -0.75 0
-0.375 -0.75 0
-0.375 -0.875 0
-0.25 -0.875 0
-0.375 -0.75 0
-0.25 -0.75 0
-1 -0.5 0
-0.875 -0.5 0
-1 -0.375 0
-0.875 -0.375 0
-0.875 -0.5 0
-0.75 -0.5 0
-0.875 -0.375 0
-0.75 -0.375 0
-1 -0.375 0
-0.875 -0.375 0
-1 -0.25 0
-0.875 -0.25 0
-0.875 -0.375 0
-0.75 -0.375 0
-0.875 -0.25 0
-0.75 -0.25 0
-1 -0.25 0
-0.875 -0.25 0
-1 -0.125 0
-0.875 -0.125 0
-0.875 -0.25 0
-0.75 -0.25 0
-0.875 -0.125 0
-0.75 -0.125 0
-1 -0.125 0
-0.875 -0.125 0
-1 0 0
-0.875 0 0
-0.875 -0.125 0
-0.75 -0.125 0
-0.875 0 0
-0.75 0 0
-0.75 -0.5 0
-0.625 -0.5 0
-0.75 -0.375 0
-0.625 -0.375 0
-0.625 -0.5 0
-0.5 -0.5 0
-0.625 -0.375 0
-0.5 -0.375 0
-0.75 -0.375 0
-0.625 -0.375 0
-0.75 -0.25 0
-0.625 -0.25 0
-0.625 -0.375 0
-0.5 -0.375 0
-0.625 -0.25 0
-0.5 -0.25 0
-0.5 0.25 0
-0.375 0.25 0
-0.5 0.375 0
-0.375 0.375 0
-0.375 0.25 0
-0.25 0.25 0
-0.375 0.375 0
-0.25 0.375 0
-0.5 0.375 0
-0.375 0.375 0
-0.5 0.5 0
-0.375 0.5 0
-0.375 0.375 0
-0.25 0.375 0
-0.375 0.5 0
-0.25 0.5 0
-0.25 0.75 0
-0.125 0.75 0
-0.25 0.875 0
-0.125 0.875 0
-0.125 0.75 0
0 0.75 0
-0.125 0.875 0
0 0.875 0
-0.25 0.875 0
-0.125 0.875 0
-0.25 1 0
-0.125 1 0
-0.125 0.875 0
0 0.875 0
-0.125 1 0
0 1 0
-0.75 0.5 0
-0.625 0.5 0
-0.75 0.625 0
-0.625 0.625 0
-0.625 0.5 0
-0.5 0.5 0
-0.625 0.625 0
-0.5 0.625 0
-0.75 0.625 0
-0.625 0.625 0
-0.75 0.75 0
-0.625 0.75 0
-0.625 0.625 0
-0.5 0.625 0
-0.625 0.75 0
-0.5 0.75 0
-0.75 0.75 0
-0.625 0.75 0
-0.75 0.875 0
-0.625 0.875 0
-0.625 0.75 0
-0.5 0.75 0
-0.625 0.875 0
-0.5 0.875 0
-0.75 0.875 0
-0.625 0.875 0
-0.75 1 0
-0.625 1 0
-0.625 0.875 0
-0.5 0.875 0
-0.625 1 0
-0.5 1 0
-0.5 0.5 0
-0.375 0.5 0
-0.5 0.625 0
-0.375 0.625 0
-0.375 0.5 0
-0.25 0.5 0
-0.375 0.625 0
-0.25 0.625 0
-0.5 0.625 0
-0.375 0.625 0
-0.5 0.75 0
-0.375 0.75 0
-0.375 0.625 0
-0.25 0.625 0
-0.375 0.75 0
-0.25 0.75 0
-0.25 0.5 0
-0.125 0.5 0
-0.25 0.625 0
-0.125 0.625 0
-0.125 0.5 0
0 0.5 0
-0.125 0.625 0
0 0.625 0
-0.125 0.625 0
0 0.625 0
-0.125 0.75 0
0 0.75 0
-0.5 0.75 0
-0.375 0.75 0
-0.5 0.875 0
-0.375 0.875 0
-0.5 0.875 0
-0.375 0.875 0
-0.5 1 0
-0.375 1 0
-0.375 0.875 0
-0.25 0.875 0
-0.375 1 0
-0.25 1 0
0.75 -0.875 0
0.8125 -0.875 0
0.75 -0.8125 0
0.8125 -0.8125 0
0.8125 -0.875 0
0.875 -0.875 0
0.8125 -0.8125 0
0.875 -0.8125 0
-0.125 -0.4375 0
-0.0625 -0.4375 0
-0.125 -0.375 0
-0.0625 -0.375 0
-0.0625 -0.4375 0
0 -0.4375 0
-0.0625 -0.375 0
0 -0.375 0
0.25 -0.625 0
0.3125 -0.625 0
0.25 -0.5625 0
0.3125 -0.5625 0
0.5 -0.875 0
0.5625 -0.875 0
0.5 -0.8125 0
0.5625 -0.8125 0
0.5625 -0.875 0
0.625 -0.875 0
0.5625 -0.8125 0
0.625 -0.8125 0
0.625 -0.875 0
0.6875 -0.875 0
0.625 -0.8125 0
0.6875 -0.8125 0
0.6875 -0.875 0
0.75 -0.875 0
0.6875 -0.8125 0
0.75 -0.8125 0
0.6875 -0.8125 0
0.75 -0.8125 0
0.6875 -0.75 0
0.75 -0.75 0
0.9375 -0.75 0
1 -0.75 0
0.9375 -0.6875 0
1 -0.6875 0
0.9375 -0.6875 0
1 -0.6875 0
0.9375 -0.625 0
1 -0.625 0
0.1875 -0.25 0
0.25 -0.25 0
0.1875 -0.1875 0
0.25 -0.1875 0
0.125 -0.1875 0
0.1875 -0.1875 0
0.125 -0.125 0
0.1875 -0.125 0
0.25 -0.0625 0
0.3125 -0.0625 0
0.25 0 0
0.3125 0 0
0.125 -0.5625 0
0.1875 -0.5625 0
0.125 -0.5 0
0.1875 -0.5 0
0.1875 -0.5625 0
0.25 -0.5625 0
0.1875 -0.5 0
0.25 -0.5 0
0.0625 -0.4375 0
0.125 -0.4375 0
0.0625 -0.375 0
0.125 -0.375 0
0.125 -0.5 0
0.1875 -0.5 0
0.125 -0.4375 0
0.1875 -0.4375 0
0.125 -0.4375 0
0.1875 -0.4375 0
0.125 -0.375 0
0.1875 -0.375 0
0.75 -1 0
0.8125 -1 0
0.75 -0.9375 0
0.8125 -0.9375 0
0.8125 -1 0
0.875 -1 0
0.8125 -0.9375 0
0.875 -0.9375 0
0.8125 -0.9375 0
0.875 -0.9375 0
0.8125 -0.875 0
0.875 -0.875 0
0.875 -0.875 0
0.9375 -0.875 0
0.875 -0.8125 0
0.9375 -0.8125 0
0.9375 -0.875 0
1 -0.875 0
0.9375 -0.8125 0
1 -0.8125 0
0.875 -0.8125 0
0.9375 -0.8125 0
0.875 -0.75 0
0.9375 -0.75 0
0.9375 -0.8125 0
1 -0.8125 0
0.9375 -0.75 0
1 -0.75 0
-0.125 -0.375 0
-0.0625 -0.375 0
-0.125 -0.3125 0
-0.0625 -0.3125 0
-0.0625 -0.375 0
0 -0.375 0
-0.0625 -0.3125 0
0 -0.3125 0
-0.125 -0.3125 0
-0.0625 -0.3125 0
-0.125 -0.25 0
-0.0625 -0.25 0
-0.0625 -0.3125 0
0 -0.3125 0
-0.0625 -0.25 0
0 -0.25 0
0.375 -0.875 0
0.4375 -0.875 0
0.375 -0.8125 0
0.4375 -0.8125 0
0.4375 -0.875 0
0.5 -0.875 0
0.4375 -0.8125 0
0.5 -0.8125 0
0.4375 -0.8125 0
0.5 -0.8125 0
0.4375 -0.75 0
0.5 -0.75 0
0.5 -1 0
0.5625 -1 0
0.5 -0.9375 0
0.5625 -0.9375 0
0.5625 -1 0
0.625 -1 0
0.5625 -0.9375 0
0.625 -0.9375 0
0.5 -0.9375 0
0.5625 -0.9375 0
0.5 -0.875 0
0.5625 -0.875 0
0.625 -1 0
0.6875 -1 0
0.625 -0.9375 0
0.6875 -0.9375 0
0.6875 -1 0
0.75 -1 0
0.6875 -0.9375 0
0.75 -0.9375 0
0.0625 -0.1875 0
0.125 -0.1875 0
0.0625 -0.125 0
0.125 -0.125 0
0.125 -0.125 0
0.1875 -0.125 0
0.125 -0.0625 0
0.1875 -0.0625 0
0.1875 -0.125 0
0.25 -0.125 0
0.1875 -0.0625 0
0.25 -0.0625 0
0.125 -0.0625 0
0.1875 -0.0625 0
0.125 0 0
0.1875 0 0
0.1875 -0.0625 0
0.25 -0.0625 0
0.1875 0 0
0.25 0 0
-0.25 -0.375 0
-0.1875 -0.375 0
-0.25 -0.3125 0
-0.1875 -0.3125 0
-0.25 -0.3125 0
-0.1875 -0.3125 0
-0.25 -0.25 0
-0.1875 -0.25 0
-0.0625 -0.25 0
0 -0.25 0
-0.0625 -0.1875 0
0 -0.1875 0
-0.125 -0.1875 0
-0.0625 -0.1875 0
-0.125 -0.125 0
-0.0625 -0.125 0
-0.125 -0.125 0
-0.0625 -0.125 0
-0.125 -0.0625 0
-0.0625 -0.0625 0
-0.125 -0.0625 0
-0.0625 -0.0625 0
-0.125 0 0
-0.0625 0 0
-0.25 -0.625 0
-0.1875 -0.625 0
-0.25 -0.5625 0
-0.1875 -0.5625 0
-0.1875 -0.625 0
-0.125 -0.625 0
-0.1875 -0.5625 0
-0.125 -0.5625 0
-0.25 -0.5625 0
-0.1875 -0.5625 0
-0.25 -0.5 0
-0.1875 -0.5 0
-0.25 -0.5 0
-0.1875 -0.5 0
-0.25 -0.4375 0
-0.1875 -0.4375 0
-0.25 -0.4375 0
-0.1875 -0.4375 0
-0.25 -0.375 0
-0.1875 -0.375 0
-0.1875 -0.4375 0
-0.125 -0.4375 0
-0.1875 -0.375 0
-0.125 -0.375 0
0 -0.75 0
0.0625 -0.75 0
0 -0.6875 0
0.0625 -0.6875 0
0.0625 -0.75 0
0.125 -0.75 0
0.0625 -0.6875 0
0.125 -0.6875 0
0.0625 -0.6875 0
0.125 -0.6875 0
0.0625 -0.625 0
0.125 -0.625 0
0.125 -0.75 0
0.1875 -0.75 0
0.125 -0.6875 0
0.1875 -0.6875 0
0.1875 -0.75 0
0.25 -0.75 0
0.1875 -0.6875 0
0.25 -0.6875 0
0.125 -0.6875 0
0.1875 -0.6875 0
0.125 -0.625 0
0.1875 -0.625 0
-0.125 -0.75 0
-0.0625 -0.75 0
-0.125 -0.6875 0
-0.0625 -0.6875 0
-0.125 0 0
-0.0625 0 0
-0.125 0.0625 0
-0.0625 0.0625 0
-0.0625 0.0625 0
0 0.0625 0
-0.0625 0.125 0
0 0.125 0
-0.125 -0.625 0
-0.0625 -0.625 0
-0.125 -0.5625 0
-0.0625 -0.5625 0
-0.0625 -0.625 0
0 -0.625 0
-0.0625 -0.5625 0
0 -0.5625 0
-0.125 -0.5625 0
-0.0625 -0.5625 0
-0.125 -0.5 0
-0.0625 -0.5 0
-0.0625 -0.5625 0
0 -0.5625 0
-0.0625 -0.5 0
0 -0.5 0
-0.25 -0.75 0
-0.1875 -0.75 0
-0.25 -0.6875 0
-0.1875 -0.6875 0
-0.1875 -0.75 0
-0.125 -0.75 0
-0.1875 -0.6875 0
-0.125 -0.6875 0
-0.25 -0.6875 0
-0.1875 -0.6875 0
-0.25 -0.625 0
-0.1875 -0.625 0
-0.1875 -0.6875 0
-0.125 -0.6875 0
-0.1875 -0.625 0
-0.125 -0.625 0
-0.75 -0.125 0
-0.6875 -0.125 0
-0.75 -0.0625 0
-0.6875 -0.0625 0
-0.6875 -0.125 0
-0.625 -0.125 0
-0.6875 -0.0625 0
-0.625 -0.0625 0
-0.75 -0.0625 0
-0.6875 -0.0625 0
-0.75 0 0
-0.6875 0 0
-0.6875 -0.0625 0
-0.625 -0.0625 0
-0.6875 0 0
-0.625 0 0
-0.375 -0.25 0
-0.3125 -0.25 0
-0.375 -0.1875 0
-0.3125 -0.1875 0
-0.3125 -0.25 0
-0.25 -0.25 0
-0.3125 -0.1875 0
-0.25 -0.1875 0
-0.375 -0.1875 0
-0.3125 -0.1875 0
-0.375 -0.125 0
-0.3125 -0.125 0
-0.3125 -0.1875 0
-0.25 -0.1875 0
-0.3125 -0.125 0
-0.25 -0.125 0
-0.625 0 0
-0.5625 0 0
-0.625 0.0625 0
-0.5625 0.0625 0
-0.5625 0 0
[...]
POINT_DATA 7416
SCALARS U double 1
LOOKUP_TABLE default
0 0 0 7.49961e-05 0 0 7.49961e-05 0.000163375 0 7.49961e-05 0 0.000165413 0 0.00028043 0 0 0.000271754 0.000380402 0.000330568 0.000452996 0.000380402 0.000468916 0.000452996 0.000535735 0.000452996 0.000535735 0.000523203 0.00059835 0.000468916 0.000551104 0.000535735 0.000583292 0.000535735 0.000583292 0.00059835 0.000608209 0.000583292 0.000608788 0.000608209 0.000552669 0 0 0.000529097 0 0 0.000206993 0 0.000234633 0.000206993 0.000388328 0.000234633 0.000437645 0 0.000234633 0 0.000252668 0.000234633 0.000437645 0.000252668 0.000469527 0.000388328 0.000523203 0.000437645 0.000580754 0 0 0.000173187 0.000262384 0 0 0.000262384 0.000403393 0.000163375 0.000232742 0.000245141 0.000338662 0.000245141 0.000338662 0.000323701 0.000430079 0.000338662 0.000486866 0.000430079 0.000599149 0 0 0.000829248 0.00104552 0 0 0.00104552 0.00118049 0 0.000252668 0 0.000254904 0 0.000254904 0 0.000239775 0.000323701 0.000430079 0.000398566 0.000501806 0.000430079 0.000599149 0.000501806 0.000658253 0.000398566 0.000501806 0.000468916 0.000551104 0.000501806 0.000658253 0.000551104 0.000656696 0.000469527 0.000621317 0.000474172 0.000625329 0.000621317 0.000684186 0.000625329 0.000684178 0.000474172 0.000625329 0.00044547 0.000586336 0.000625329 0.000684178 0.000586336 0.000639664 0.000518749 0.000310788 0.000508945 0.000282647 0 0 0.000403393 0.000600129 0 0 0.000600129 0.000829248 0.000600129 0.000829248 0.00116725 0.00160963 0 0.000239775 0 0.000203979 0 0.000203979 0 0.000140215 0.000203979 0.000379037 0.000140215 0.00028043 0.000508945 0.000282647 0.000495874 0.000270965 0.000282647 0 0.000270965 0 0.000495874 0.000270965 0.000459642 0.000250115 0.000270965 0 0.000250115 0 7.49961e-05 0.000119186 0.000120205 0.000177979 0.000119186 0.000163375 0.000177979 0.000245141 0.000120205 0.000177979 0.000165413 0.000242586 0.000177979 0.000245141 0.000242586 0.000323701 0 0 8.16877e-05 0.000117962 0 0 0.000117962 0.000173187 8.16877e-05 0.000117962 0.000163375 0.000232742 0.000117962 0.000173187 0.000232742 0.000340203 0 8.27067e-05 0 0.000111529 8.27067e-05 0.000165413 0.000111529 0.0002161 0 0.000111529 0 0.000142078 0.000111529 0.0002161 0.000142078 0.000271754 0 0.000142078 0 0.000174732 0.000142078 0.000271754 0.000174732 0.000330568 0 0.000174732 0 0.000206993 0.000174732 0.000330568 0.000206993 0.000388328 0.000165413 0.000242586 0.0002161 0.000309975 0.000242586 0.000323701 0.000309975 0.000398566 0.0002161 0.000309975 0.000271754 0.000380402 0.000309975 0.000398566 0.000380402 0.000468916 0.000684186 0.00064765 0.000684178 0.000639834 0.00064765 0.000508945 0.000639834 0.000495874 0.000684178 0.000639834 0.000639664 0.000595916 0.000639834 0.000495874 0.000595916 0.000459642 0.000282878 0.000152147 0.000148403 7.91435e-05 0.000152147 0 7.91435e-05 0 0.000148403 7.91435e-05 0 0 7.91435e-05 0 0 0 0.00044547 0.000586336 0.000379037 0.0004993 0.000586336 0.000639664 0.0004993 0.00054403 0.000379037 0.0004993 0.00028043 0.000364128 0.0004993 0.00054403 0.000364128 0.000397796 0.00028043 0.000364128 0.000140215 0.000192292 0.000364128 0.000397796 0.000192292 0.000210445 0.000140215 0.000192292 0 0 0.000192292 0.000210445 0 0 0.000639664 0.000595916 0.00054403 0.0005063 0.000595916 0.000459642 0.0005063 0.000389322 0.00054403 0.0005063 0.000397796 0.000369728 0.0005063 0.000389322 0.000369728 0.000282878 0.000459642 0.000250115 0.000389322 0.000210898 0.000250115 0 0.000210898 0 0.000210898 0 0.000152147 0 0.000397796 0.000369728 0.000210445 0.000195174 0.000210445 0.000195174 0 0 0.000195174 0.000148403 0 0 0.000937995 0.000753035 0.00139551 0.00112135 0.000753035 0.000529097 0.00112135 0.000783743 0.000907506 0.00110442 0.000913502 0.00110028 0.00110442 0.00134809 0.00110028 0.00133381 0.00226568 0.00257887 0.00250858 0.00285314 0.00118049 0.00119029 0.00174806 0.00177068 0.00119029 0.00115807 0.00177068 0.00172217 0.00115807 0.00107359 0.00172217 0.00159759 0.00107359 0.000937995 0.00159759 0.00139551 0.00159759 0.00139551 0.00209653 0.00183208 0.00053098 0 0.000646478 0 0.000646478 0 0.00075376 0 0.00187621 0.0021835 0.00151446 0.00175694 0.00128638 0.00151446 0.000913056 0.00106418 0.000635821 0.000720084 0 0 0.00181274 0.00215069 0.00193041 0.00228939 0.00215069 0.00250858 0.00228939 0.00266293 0.00163607 0.0019717 0.00161004 0.00193069 0.00193041 0.00228939 0.0019717 0.00234254 0.0019717 0.00234254 0.00193069 0.00229246 0 0 0.000470925 0.00037784 0 0 0.00037784 0.000264548 0.00037784 0.000264548 0.000753035 0.000529097 0.000529097 0.000264548 0.000783743 0.0004029 0.000264548 0 0.0004029 0 0.000783743 0.0004029 0.00102871 0.00053098 0.0004029 0 0.00053098 0 0.000913502 0.00110028 0.000888868 0.00105235 0.00110028 0.00133381 0.00105235 0.00126184 0.000888868 0.00105235 0.000829693 0.000960945 0.00105235 0.00126184 0.000960945 0.00113191 0.00104552 0.00111301 0.00154581 0.0016695 0.00111301 0.00118049 0.0016695 0.00174806 0.0016695 0.00174806 0.0021909 0.00229353 0 0 0.000590247 0.000597709 0 0 0.000597709 0.000581383 0.000590247 0.000597709 0.00118049 0.00119029 0 0 0.000581383 0.000538989 0 0 0.000538989 0.000470925 0.00109685 0.00128638 0.000789068 0.000913056 0.000913056 0.00106418 0.000476305 0.000550223 0.00106418 0.00123191 0.000550223 0.000635821 0.000476305 0.000550223 0 0 0.000550223 0.000635821 0 0 0.000658253 0.000766041 0.000657475 0.000762047 0.000657475 0.000762047 0.000656696 0.000728557 0.000960945 0.00113191 0.000827988 0.00094372 0.000745038 0.000827988 0.000636012 0.000663422 0.000636012 0.000663422 0.00052131 0.00046967 0.00052131 0.00046967 0.000419849 0.000292214 0.000486866 0.000592506 0.000543008 0.000663883 0.000592506 0.000731684 0.000663883 0.000812619 0.000543008 0.000663883 0.000599149 0.000719257 0.000599149 0.000719257 0.000628701 0.000753609 0.000628701 0.000753609 0.000658253 0.000766041 0.000753609 0.000907506 0.000766041 0.000913502 0.000790013 0.000964421 0.000961353 0.00117577 0.000964421 0.00116725 0.00117577 0.00141981 0.00117577 0.00141981 0.00135735 0.00163704 0.00116725 0.00138844 0.00141981 0.00168555 0.00138844 0.00160963 0.00168555 0.0019594 0.00141981 0.00168555 0.00163704 0.00194492 0.000516734 0.000639629 0.000631479 0.000779692 0.000419849 0.000292214 0.000346479 0.000199199 0.000199199 0 0.000164907 0 0.000731684 0.000900672 0.000812619 0.00100119 0.000900672 0.00111137 0.00100119 0.00123216 0.000812619 0.00100119 0.000875256 0.00106974 0.00100119 0.00123216 0.00106974 0.00131235 0.000340203 0.000417614 0.000419989 0.000510634 0.000417614 0.000516734 0.000510634 0.000631479 0.000419989 0.000510634 0.000486866 0.000592506 0.000510634 0.000631479 0.000592506 0.000731684 0.000330568 0.000391782 0.000359448 0.000428858 0.000391782 0.000452996 0.000428858 0.000488099 0.000359448 0.000428858 0.000388328 0.000455765 0.000428858 0.000488099 0.000455765 0.000523203 0.000551104 0.0006039 0.000567198 0.000600424 0.0006039 0.000656696 0.000600424 0.000637736 0.000567198 0.000600424 0.000583292 0.00059604 0.000600424 0.000637736 0.00059604 0.000608788 0.000523203 0.000560776 0.000551979 0.000597318 0.000560776 0.00059835 0.000597318 0.00062059 0.000551979 0.000597318 0.000580754 0.000623229 0.000597318 0.00062059 0.000623229 0.000645433 0.000437645 0.0005092 0.000453586 0.000537534 0.0005092 0.000580754 0.000537534 0.000598657 0.000453586 0.000537534 0.000469527 0.000545422 0.000537534 0.000598657 0.000545422 0.000621317 0.000262384 0.000332888 0.000395213 0.000487583 0.000332888 0.000403393 0.000487583 0.0006041 0.000395213 0.000487583 0.000516734 0.000639629 0.000487583 0.0006041 0.000639629 0.000790013 0.000580754 0.000623229 0.000598657 0.000646459 0.000623229 0.000645433 0.000646459 0.000663528 0.000598657 0.000646459 0.000621317 0.000652752 0.000646459 0.000663528 0.000652752 0.000684186 0.000173187 0.000217786 0.000256695 0.000317821 0.000217786 0.000262384 0.000317821 0.000395213 0.000256695 0.000317821 0.000340203 0.000417614 0.000317821 0.000395213 0.000417614 0.000516734 0.000608788 0.000621604 0.000580728 0.000557032 0.000621604 0.000636012 0.000557032 0.00052131 0.000580728 0.000557032 0.000552669 0.000497566 0.000557032 0.00052131 0.000497566 0.000419849 0.000552669 0.000497566 0.000527633 0.000453492 0.000527633 0.000453492 0.000518749 0.000414768 0.000453492 0.000346479 0.000414768 0.000310788 0.00059835 0.000603279 0.00062059 0.000629741 0.000603279 0.000608209 0.000629741 0.000614122 0.00062059 0.000629741 0.000645433 0.000647501 0.000629741 0.000614122 0.000647501 0.000625906 0.000608209 0.000580439 0.000614122 0.000583917 0.000580439 0.000552669 0.000583917 0.000527633 0.000614122 0.000583917 0.000625906 0.000584027 0.000583917 0.000527633 0.000584027 0.000518749 0.000645433 0.000647501 0.000663528 0.000664324 0.000647501 0.000625906 0.000664324 0.000633938 0.000663528 0.000664324 0.000684186 0.000665918 0.000664324 0.000633938 0.000665918 0.00064765 0.000625906 0.000584027 0.000633938 0.000586406 0.000584027 0.000518749 0.000586406 0.000513847 0.000633938 0.000586406 0.00064765 0.000578298 0.000586406 0.000513847 0.000578298 0.000508945 0.000232742 0.000286472 0.000285702 0.000345208 0.000286472 0.000340203 0.000345208 0.000419989 0.000285702 0.000345208 0.000338662 0.000412764 0.000345208 0.000419989 0.000412764 0.000486866 0.000829248 0.000937383 0.00121944 0.0013951 0.000937383 0.00104552 0.0013951 0.00154581 0.00121944 0.0013951 0.00160963 0.00182807 0.0013951 0.00154581 0.00182807 0.00202702 0.000656696 0.000728557 0.000637736 0.00068235 0.000728557 0.000829693 0.00068235 0.000745038 0.000637736 0.00068235 0.000608788 0.000621604 0.00068235 0.000745038 0.000621604 0.000636012 0.000310788 0.000164907 0.000296717 0.000151627 0.000164907 0 0.000151627 0 0.000296717 0.000151627 0.000282647 0.000141324 0.000151627 0 0.000141324 0 0.000252668 0.000361098 0.000253786 0.000371137 0.000361098 0.000469527 0.000371137 0.000471849 0.000253786 0.000371137 0.000254904 0.000368969 0.000371137 0.000471849 0.000368969 0.000474172 0.000254904 0.000368969 0.00024734 0.000362896 0.000368969 0.000474172 0.000362896 0.000459821 0.00024734 0.000362896 0.000239775 0.000346401 0.000362896 0.000459821 0.000346401 0.00044547 0.000403393 0.000501761 0.0006041 0.000737091 0.000501761 0.000600129 0.000737091 0.000883689 0.0006041 0.000737091 0.000790013 0.000964421 0.000737091 0.000883689 0.000964421 0.00116725 0.000239775 0.000346401 0.000221877 0.000325331 0.000346401 0.00044547 0.000325331 0.000412253 0.000221877 0.000325331 0.000203979 0.000291508 0.000325331 0.000412253 0.000291508 0.000379037 0.000389322 0.00030011 0.0003361 0.000265472 0.00030011 0.000210898 0.000265472 0.000181522 0.0003361 0.000265472 0.000282878 0.000217512 0.000265472 0.000181522 0.000217512 0.000152147 0.000369728 0.000326303 0.000282451 0.000255764 0.000326303 0.000282878 0.000255764 0.000215641 0.000282451 0.000255764 0.000195174 0.000171788 0.000255764 0.000215641 0.000171788 0.000148403 0.00146036 0.00075376 0.00162701 0.000836833 0.00075376 0 0.000836833 0 0.00162701 0.000836833 0.00173532 0.000894313 0.000836833 0 0.000894313 0 0.00175694 0.0019999 0.00123191 0.00139941 0.0019999 0.00222698 0.00139941 0.0015616 0.0015616 0.0016913 0.000804459 0.000871412 0.0016913 0.00177811 0.000871412 0.000916852 0.000804459 0.000871412 0 0 0.000871412 0.000916852 0 0 0.00139551 0.00125843 0.00161379 0.00146969 0.00125843 0.00112135 0.00146969 0.00129225 0.00161379 0.00146969 0.00183208 0.00166557 0.00146969 0.00129225 0.00166557 0.00146577 0.000204378 0 0.000158771 0 0.000158771 0 0.000105281 0 0.000204515 0.000158824 0 0 0.000158824 0.000105293 0 0 0.000105281 0 5.39266e-05 0 0.000105293 5.39266e-05 0 0 5.39266e-05 0 0 0 0.00112135 0.000952548 0.00129225 0.00111302 0.000952548 0.000783743 0.00111302 0.000906228 0.00129225 0.00111302 0.00146577 0.00126212 0.00111302 0.000906228 0.00126212 0.00102871 0.00202702 0.0021147 0.00225618 0.00235783 0.0021147 0.0021909 0.00235783 0.0024352 0.00225618 0.00235783 0.0024704 0.00258064 0.00235783 0.0024352 0.00258064 0.002667 0.0021909 0.00224221 0.0024352 0.0025093 0.00224221 0.00229353 0.0025093 0.00255031 0.0024352 0.0025093 0.002667 0.00274718 0.0025093 0.00255031 0.00274718 0.00279351 0.00268039 0.00255607 0.00289474 0.00277482 0.00255607 0.00241436 0.00277482 0.00261479 0.00241436 0.00224007 0.00261479 0.00242296 0.0024704 0.00258064 0.00267718 0.00279757 0.00258064 0.002667 0.00279757 0.00289161 0.00267718 0.00279757 0.00285704 0.00298585 0.00279757 0.00289161 0.00298585 0.00308781 0.00360071 0.0036362 0.00373023 0.00377685 0.0036362 0.00364908 0.00377685 0.0037794 0.00373023 0.00377685 0.00383858 0.00387596 0.00394997 0.00392176 0.00398328 0.00394976 0.00224007 0.00202788 0.00242296 0.00219973 0.00396689 0.00398328 0.00395205 0.00396304 0.002667 0.00274718 0.00289161 0.002979 0.00274718 0.00279351 0.002979 0.00302931 0.00289161 0.002979 0.00308781 0.00318358 0.002979 0.00302931 0.00318358 0.00323722 0.000875256 0.000972499 0.000899919 0.000988213 0.000972499 0.00106974 0.000988213 0.00109968 0.000899919 0.000988213 0.000907506 0.00100596 0.000988213 0.00109968 0.00100596 0.00110442 0.00398328 0.00394976 0.00396304 0.00393529 0.00285314 0.00301688 0.00296198 0.00312942 0.00301688 0.00316809 0.00312942 0.00328778 0.00296198 0.00312942 0.00303081 0.00321314 0.00312942 0.00328778 0.00321314 0.0033784 0.00106974 0.00119105 0.00109968 0.00120851 0.00119105 0.00131235 0.00120851 0.0013411 0.00109968 0.00120851 0.00110442 0.00122625 0.00120851 0.0013411 0.00122625 0.00134809 0.00310106 0.00328776 0.00308988 0.00326944 0.00328776 0.0034545 0.00326944 0.00343694 0.00308988 0.00326944 0.00304091 0.00321762 0.00326944 0.00343694 0.00321762 0.00338146 0.00257887 0.00272235 0.002716 0.00288712 0.00272235 0.00285704 0.00288712 0.00302901 0.002716 0.00288712 0.00285314 0.00301688 0.00288712 0.00302901 0.00301688 0.00316809 0.00365673 0.00375599 0.00371179 0.00382245 0.00375599 0.00383858 0.00382245 0.00389678 0.00371179 0.00382245 0.00374228 0.00384486 0.00374228 0.00384486 0.00372152 0.00382624 0.00250858 0.00268086 0.00258575 0.00278359 0.00268086 0.00285314 0.00278359 0.00296198 0.00258575 0.00278359 0.00266293 0.00284671 0.00278359 0.00296198 0.00284671 0.00303081 0.00304091 0.00321762 0.00295538 0.00312741 0.00295538 0.00312741 0.00283335 0.00299919 0.00211679 0.00173532 0.00215204 0.00176257 0.00285704 0.00298585 0.00302901 0.00316595 0.00298585 0.00308781 0.00316595 0.00327687 0.00302901 0.00316595 0.00316809 0.00331123 0.00316595 0.00327687 0.00331123 0.00342584 0.00283335 0.00299919 0.00267628 0.00283162 0.00267628 0.00283162 0.00248325 0.00262813 0.00253192 0.00217479 0.0025257 0.00217275 0.00173532 0.00131482 0.00176257 0.00135063 0.00131482 0.000894313 0.00135063 0.000905895 0.000894313 0.000447156 0.000905895 0.000457222 0.000447156 0 0.000457222 0 0.000905895 0.000457222 0.000918327 0.000458686 0.000457222 0 0.000458686 0 0.000918327 0.000458686 0.000919187 0.000459104 0.000458686 0 0.000459104 0 0.000459104 0 0.00045639 0 0.00174806 0.00175937 0.00202079 0.00204938 0.00175937 0.00177068 0.00204938 0.00204394 0.00202079 0.00204938 0.00229353 0.00231957 0.00204938 0.00204394 0.00231957 0.00231605 0.00248325 0.00262813 0.00225591 0.00238668 0.00225591 0.00238668 0.0019999 0.00211344 0.00238668 0.00250968 0.00211344 0.00222698 0.00177068 0.00174643 0.00204394 0.00203587 0.00174643 0.00172217 0.00203587 0.00198758 0.00204394 0.00203587 0.00231605 0.00230466 0.00203587 0.00198758 0.00230466 0.00225281 0.00172217 0.00165988 0.00198758 0.00193656 0.00165988 0.00159759 0.00193656 0.00184706 0.00198758 0.00193656 0.00225281 0.0021922 0.00193656 0.00184706 0.0021922 0.00209653 0.00102871 0.000779846 0.00114516 0.000876841 0.000779846 0.00053098 0.000876841 0.000588729 0.00114516 0.000876841 0.00125393 0.000960782 0.000876841 0.000588729 0.000960782 0.000646478 0.00125393 0.000960782 0.00135959 0.00104383 0.000960782 0.000646478 0.00104383 0.000700119 0.00135959 0.00104383 0.00146036 0.00110706 0.00104383 0.000700119 0.00110706 0.00075376 0.00383858 0.00387596 0.00389678 0.00394191 0.00158904 0.00172327 0.00145607 0.0015772 0.00172327 0.00187621 0.0015772 0.00169534 0.00145607 0.0015772 0.00128638 0.00140042 0.0015772 0.00169534 0.00140042 0.00151446 0.00151446 0.0016357 0.00128932 0.00140232 0.0016357 0.00175694 0.00140232 0.00149442 0.00128932 0.00140232 0.00106418 0.00114804 0.00140232 0.00149442 0.00114804 0.00123191 0.00234254 0.00252383 0.0023175 0.00251646 0.0023175 0.00251646 0.00229246 0.00247734 0.00251646 0.00270561 0.00247734 0.00266822 0.00123191 0.00131566 0.000933863 0.00100721 0.00131566 0.00139941 0.00100721 0.00107097 0.000933863 0.00100721 0.000635821 0.000677953 0.00100721 0.00107097 0.000677953 0.000720084 0.00139941 0.0014805 0.00107097 0.00113439 0.0014805 0.0015616 0.00113439 0.00118303 0.00107097 0.00113439 0.000720084 0.000760058 0.00113439 0.00118303 0.000760058 0.000804459 0.000720084 0.000760058 0.000360042 0.000385991 0.000760058 0.000804459 0.000385991 0.000402229 0.000360042 0.000385991 0 0 0.000385991 0.000402229 0 0 0.00111137 0.00122595 0.00117177 0.00129945 0.00122595 0.00135735 0.00129945 0.00143824 0.00117177 0.00129945 0.00123216 0.00135608 0.00129945 0.00143824 0.00135608 0.00150161 0.00261401 0.00232193 0.0024928 0.0022059 0.00045639 0 0.000442804 0 0.000442804 0 0.00042663 0 0.00042663 0 0.000405296 0 0.000405296 0 0.000362672 0 0.00256125 0.0025689 0.00219514 0.00220913 0.00216759 0.00219514 0.00177811 0.00179574 0.0025689 0.0025501 0.00220913 0.00219735 0.00262287 0.00249769 0.00233139 0.00221176 0.00177811 0.00179574 0.00134748 0.00137718 0.00134748 0.00137718 0.000916852 0.000923759 0.000916852 0.000923759 0.000458426 0.000466283 0.000923759 0.000932464 0.000466283 0.000465864 0.000458426 0.000466283 0 0 0.000466283 0.000465864 0 0 0.000932464 0.000930246 0.000465864 0.000464734 0.000465864 0.000464734 0 0 0.000464734 0.000460707 0 0 0.000460707 0.000446067 0 0 0.000446067 0.000429037 0 0 0.000429037 0.000407026 0 0 0.000407026 0.000363869 0 0 0.00135735 0.00149719 0.00143824 0.00157919 0.00149719 0.00163704 0.00157919 0.00173625 0.00143824 0.00157919 0.00150161 0.00164794 0.00157919 0.00173625 0.00164794 0.00181274 0.00123216 0.00135608 0.00127226 0.00141057 0.00135608 0.00150161 0.00141057 0.00155986 0.00127226 0.00141057 0.00131235 0.00144482 0.00141057 0.00155986 0.00144482 0.00159768 0.00150161 0.00164794 0.00155986 0.00171279 0.00164794 0.00181274 0.00171279 0.00187157 0.00155986 0.00171279 0.00159768 0.00175124 0.00171279 0.00187157 0.00175124 0.00193041 0.00163704 0.00179098 0.00173625 0.001892 0.00179098 0.00194492 0.001892 0.00206002 0.00173625 0.001892 0.00181274 0.00198171 0.001892 0.00206002 0.00198171 0.00215069 0.00194492 0.00209978 0.00206002 0.00222616 0.00209978 0.00226568 0.00222616 0.00238713 0.00206002 0.00222616 0.00215069 0.00232964 0.00222616 0.00238713 0.00232964 0.00250858 0.00131235 0.00144482 0.0013411 0.00147459 0.00144482 0.00159768 0.00147459 0.0016296 0.0013411 0.00147459 0.00134809 0.00148007 0.00147459 0.0016296 0.00148007 0.00163607 0.00159768 0.00175124 0.0016296 0.00178736 0.00175124 0.00193041 0.00178736 0.00195105 0.0016296 0.00178736 0.00163607 0.00180388 0.00178736 0.00195105 0.00180388 0.0019717 0.00134809 0.00148007 0.00134095 0.00148303 0.00148007 0.00163607 0.00148303 0.00162306 0.00134095 0.00148303 0.00133381 0.0014572 0.00148303 0.00162306 0.0014572 0.00161004 0.00228939 0.00247616 0.00231596 0.00251752 0.00247616 0.00266293 0.00251752 0.00271078 0.00231596 0.00251752 0.00234254 0.00252383 0.00251752 0.00271078 0.00252383 0.0027198 0.00133381 0.0014572 0.00129782 0.00143072 0.0014572 0.00161004 0.00143072 0.00157489 0.00129782 0.00143072 0.00126184 0.00137341 0.00143072 0.00157489 0.00137341 0.00151036 0.00161004 0.00177037 0.00157489 0.00172152 0.00177037 0.00193069 0.00172152 0.00188869 0.00157489 0.00172152 0.00151036 0.00164888 0.00172152 0.00188869 0.00164888 0.0018054 0.00126184 0.00137341 0.00119688 0.00131302 0.00137341 0.00151036 0