<?xml version="1.0" ?> 
<!-- 
# vtk DataFile Version 3.0
#This file was generated by the deal.II library on 23:53:55 at 2021/5/3
-->
<VTKFile type="UnstructuredGrid" version="0.1" byte_order="LittleEndian">
<UnstructuredGrid>
<FieldData>
<DataArray type="Float32" Name="CYCLE" NumberOfTuples="1" format="ascii">193</DataArray>
<DataArray type="Float32" Name="TIME" NumberOfTuples="1" format="ascii">0.386</DataArray>
</FieldData>
<Piece NumberOfPoints="7272" NumberOfCells="1818" >
  <Points>
    <DataArray type="Float32" NumberOfComponents="3" format="ascii">
-1 -1 0
-0.75 -1 0
-1 -0.75 0
-0.75 -0.75 0
-0.75 -1 0
-0.5 -1 0
-0.75 -0.75 0
-0.5 -0.75 0
-1 -0.75 0
-0.75 -0.75 0
-1 -0.5 0
-0.75 -0.5 0
-0.75 -0.75 0
-0.5 -0.75 0
-0.75 -0.5 0
-0.5 -0.5 0
0.75 -1 0
1 -1 0
0.75 -0.75 0
1 -0.75 0
0.75 -0.25 0
1 -0.25 0
0.75 0 0
1 0 0
-0.75 -0.25 0
-0.625 -0.25 0
-0.75 -0.125 0
-0.625 -0.125 0
-0.625 -0.25 0
-0.5 -0.25 0
-0.625 -0.125 0
-0.5 -0.125 0
-0.5 -0.25 0
-0.375 -0.25 0
-0.5 -0.125 0
-0.375 -0.125 0
-1 -0.5 0
-0.875 -0.5 0
-1 -0.375 0
-0.875 -0.375 0
-0.875 -0.5 0
-0.75 -0.5 0
-0.875 -0.375 0
-0.75 -0.375 0
-1 -0.375 0
-0.875 -0.375 0
-1 -0.25 0
-0.875 -0.25 0
-0.875 -0.375 0
-0.75 -0.375 0
-0.875 -0.25 0
-0.75 -0.25 0
-1 -0.25 0
-0.875 -0.25 0
-1 -0.125 0
-0.875 -0.125 0
-0.875 -0.25 0
-0.75 -0.25 0
-0.875 -0.125 0
-0.75 -0.125 0
-1 -0.125 0
-0.875 -0.125 0
-1 0 0
-0.875 0 0
0.125 -0.75 0
0.25 -0.75 0
0.125 -0.625 0
0.25 -0.625 0
0.125 -0.625 0
0.25 -0.625 0
0.125 -0.5 0
0.25 -0.5 0
0.125 -0.5 0
0.25 -0.5 0
0.125 -0.375 0
0.25 -0.375 0
0 -0.375 0
0.125 -0.375 0
0 -0.25 0
0.125 -0.25 0
0.125 -0.375 0
0.25 -0.375 0
0.125 -0.25 0
0.25 -0.25 0
0.125 -0.25 0
0.25 -0.25 0
0.125 -0.125 0
0.25 -0.125 0
-0.25 -0.625 0
-0.125 -0.625 0
-0.25 -0.5 0
-0.125 -0.5 0
-0.125 -0.625 0
0 -0.625 0
-0.125 -0.5 0
0 -0.5 0
-0.25 -0.5 0
-0.125 -0.5 0
-0.25 -0.375 0
-0.125 -0.375 0
-0.125 -0.5 0
0 -0.5 0
-0.125 -0.375 0
0 -0.375 0
-0.25 -0.375 0
-0.125 -0.375 0
-0.25 -0.25 0
-0.125 -0.25 0
-0.125 -0.375 0
0 -0.375 0
-0.125 -0.25 0
0 -0.25 0
0 -1 0
0.125 -1 0
0 -0.875 0
0.125 -0.875 0
0.125 -1 0
0.25 -1 0
0.125 -0.875 0
0.25 -0.875 0
0.125 -0.875 0
0.25 -0.875 0
0.125 -0.75 0
0.25 -0.75 0
-0.5 -0.5 0
-0.375 -0.5 0
-0.5 -0.375 0
-0.375 -0.375 0
-0.375 -0.5 0
-0.25 -0.5 0
-0.375 -0.375 0
-0.25 -0.375 0
-0.5 -0.375 0
-0.375 -0.375 0
-0.5 -0.25 0
-0.375 -0.25 0
-0.375 -0.375 0
-0.25 -0.375 0
-0.375 -0.25 0
-0.25 -0.25 0
0.25 -0.75 0
0.375 -0.75 0
0.25 -0.625 0
0.375 -0.625 0
0.375 -0.75 0
0.5 -0.75 0
0.375 -0.625 0
0.5 -0.625 0
0.25 -1 0
0.375 -1 0
0.25 -0.875 0
0.375 -0.875 0
0.375 -1 0
0.5 -1 0
0.375 -0.875 0
0.5 -0.875 0
0.25 -0.875 0
0.375 -0.875 0
0.25 -0.75 0
0.375 -0.75 0
0.5 -1 0
0.625 -1 0
0.5 -0.875 0
0.625 -0.875 0
0.625 -1 0
0.75 -1 0
0.625 -0.875 0
0.75 -0.875 0
0.625 -0.875 0
0.75 -0.875 0
0.625 -0.75 0
0.75 -0.75 0
0.5 -0.75 0
0.625 -0.75 0
0.5 -0.625 0
0.625 -0.625 0
0.625 -0.75 0
0.75 -0.75 0
0.625 -0.625 0
0.75 -0.625 0
0.75 -0.75 0
0.875 -0.75 0
0.75 -0.625 0
0.875 -0.625 0
0.875 -0.75 0
1 -0.75 0
0.875 -0.625 0
1 -0.625 0
0.875 -0.625 0
1 -0.625 0
0.875 -0.5 0
1 -0.5 0
-0.25 -0.25 0
-0.125 -0.25 0
-0.25 -0.125 0
-0.125 -0.125 0
-1 0.25 0
-0.875 0.25 0
-1 0.375 0
-0.875 0.375 0
-0.875 0.25 0
-0.75 0.25 0
-0.875 0.375 0
-0.75 0.375 0
-1 0.375 0
-0.875 0.375 0
-1 0.5 0
-0.875 0.5 0
0.25 -0.25 0
0.375 -0.25 0
0.25 -0.125 0
0.375 -0.125 0
0.25 -0.125 0
0.375 -0.125 0
0.25 0 0
0.375 0 0
0.375 -0.125 0
0.5 -0.125 0
0.375 0 0
0.5 0 0
0.875 -0.5 0
1 -0.5 0
0.875 -0.375 0
1 -0.375 0
0.75 -0.375 0
0.875 -0.375 0
0.75 -0.25 0
0.875 -0.25 0
0.875 -0.375 0
1 -0.375 0
0.875 -0.25 0
1 -0.25 0
0.625 -0.25 0
0.75 -0.25 0
0.625 -0.125 0
0.75 -0.125 0
0.5 -0.125 0
0.625 -0.125 0
0.5 0 0
0.625 0 0
0.625 -0.125 0
0.75 -0.125 0
0.625 0 0
0.75 0 0
-0.75 -0.5 0
-0.625 -0.5 0
-0.75 -0.375 0
-0.625 -0.375 0
-0.625 -0.5 0
-0.5 -0.5 0
-0.625 -0.375 0
-0.5 -0.375 0
-0.5 -1 0
-0.375 -1 0
-0.5 -0.875 0
-0.375 -0.875 0
-0.375 -1 0
-0.25 -1 0
-0.375 -0.875 0
-0.25 -0.875 0
-0.5 -0.875 0
-0.375 -0.875 0
-0.5 -0.75 0
-0.375 -0.75 0
-0.375 -0.875 0
-0.25 -0.875 0
-0.375 -0.75 0
-0.25 -0.75 0
-1 0 0
-0.875 0 0
-1 0.125 0
-0.875 0.125 0
-0.875 0 0
-0.75 0 0
-0.875 0.125 0
-0.75 0.125 0
-1 0.125 0
-0.875 0.125 0
-1 0.25 0
-0.875 0.25 0
-0.25 -1 0
-0.125 -1 0
-0.25 -0.875 0
-0.125 -0.875 0
-0.125 -1 0
0 -1 0
-0.125 -0.875 0
0 -0.875 0
-0.25 -0.875 0
-0.125 -0.875 0
-0.25 -0.75 0
-0.125 -0.75 0
-0.125 -0.875 0
0 -0.875 0
-0.125 -0.75 0
0 -0.75 0
-0.5 -0.75 0
-0.375 -0.75 0
-0.5 -0.625 0
-0.375 -0.625 0
-0.375 -0.75 0
-0.25 -0.75 0
-0.375 -0.625 0
-0.25 -0.625 0
-0.5 -0.625 0
-0.375 -0.625 0
-0.5 -0.5 0
-0.375 -0.5 0
-0.375 -0.625 0
-0.25 -0.625 0
-0.375 -0.5 0
-0.25 -0.5 0
-1 0.875 0
-0.875 0.875 0
-1 1 0
-0.875 1 0
-0.5625 0.25 0
-0.5 0.25 0
-0.5625 0.3125 0
-0.5 0.3125 0
-0.625 0.3125 0
-0.5625 0.3125 0
-0.625 0.375 0
-0.5625 0.375 0
-0.5625 0.3125 0
-0.5 0.3125 0
-0.5625 0.375 0
-0.5 0.375 0
-0.6875 0.375 0
-0.625 0.375 0
-0.6875 0.4375 0
-0.625 0.4375 0
-0.75 0.4375 0
-0.6875 0.4375 0
-0.75 0.5 0
-0.6875 0.5 0
-0.6875 0.4375 0
-0.625 0.4375 0
-0.6875 0.5 0
-0.625 0.5 0
-0.625 0.375 0
-0.5625 0.375 0
-0.625 0.4375 0
-0.5625 0.4375 0
-0.25 0.125 0
-0.1875 0.125 0
-0.25 0.1875 0
-0.1875 0.1875 0
-0.1875 0.125 0
-0.125 0.125 0
-0.1875 0.1875 0
-0.125 0.1875 0
-0.1875 0.1875 0
-0.125 0.1875 0
-0.1875 0.25 0
-0.125 0.25 0
-0.875 0.625 0
-0.8125 0.625 0
-0.875 0.6875 0
-0.8125 0.6875 0
-0.8125 0.625 0
-0.75 0.625 0
-0.8125 0.6875 0
-0.75 0.6875 0
-0.875 0.6875 0
-0.8125 0.6875 0
-0.875 0.75 0
-0.8125 0.75 0
-0.8125 0.6875 0
-0.75 0.6875 0
-0.8125 0.75 0
-0.75 0.75 0
-0.875 0.75 0
-0.8125 0.75 0
-0.875 0.8125 0
-0.8125 0.8125 0
-0.8125 0.75 0
-0.75 0.75 0
-0.8125 0.8125 0
-0.75 0.8125 0
-0.8125 0.8125 0
-0.75 0.8125 0
-0.8125 0.875 0
-0.75 0.875 0
-0.5 -0.125 0
-0.4375 -0.125 0
-0.5 -0.0625 0
-0.4375 -0.0625 0
-0.4375 -0.125 0
-0.375 -0.125 0
-0.4375 -0.0625 0
-0.375 -0.0625 0
-0.4375 -0.0625 0
-0.375 -0.0625 0
-0.4375 0 0
-0.375 0 0
-0.375 -0.125 0
-0.3125 -0.125 0
-0.375 -0.0625 0
-0.3125 -0.0625 0
-0.3125 -0.125 0
-0.25 -0.125 0
-0.3125 -0.0625 0
-0.25 -0.0625 0
-0.375 -0.0625 0
-0.3125 -0.0625 0
-0.375 0 0
-0.3125 0 0
-0.3125 -0.0625 0
-0.25 -0.0625 0
-0.3125 0 0
-0.25 0 0
-0.375 -0.25 0
-0.3125 -0.25 0
-0.375 -0.1875 0
-0.3125 -0.1875 0
-0.3125 -0.25 0
-0.25 -0.25 0
-0.3125 -0.1875 0
-0.25 -0.1875 0
-0.375 -0.1875 0
-0.3125 -0.1875 0
-0.375 -0.125 0
-0.3125 -0.125 0
-0.3125 -0.1875 0
-0.25 -0.1875 0
-0.3125 -0.125 0
-0.25 -0.125 0
-0.875 -0.125 0
-0.8125 -0.125 0
-0.875 -0.0625 0
-0.8125 -0.0625 0
-0.8125 -0.125 0
-0.75 -0.125 0
-0.8125 -0.0625 0
-0.75 -0.0625 0
-0.875 -0.0625 0
-0.8125 -0.0625 0
-0.875 0 0
-0.8125 0 0
-0.8125 -0.0625 0
-0.75 -0.0625 0
-0.8125 0 0
-0.75 0 0
-0.625 -0.125 0
-0.5625 -0.125 0
-0.625 -0.0625 0
-0.5625 -0.0625 0
-0.5625 -0.125 0
-0.5 -0.125 0
-0.5625 -0.0625 0
-0.5 -0.0625 0
-0.625 -0.0625 0
-0.5625 -0.0625 0
-0.625 0 0
-0.5625 0 0
-0.5625 -0.0625 0
-0.5 -0.0625 0
-0.5625 0 0
-0.5 0 0
0.0625 -0.0625 0
0.125 -0.0625 0
0.0625 0 0
0.125 0 0
0 -0.75 0
0.0625 -0.75 0
0 -0.6875 0
0.0625 -0.6875 0
0.0625 -0.75 0
0.125 -0.75 0
0.0625 -0.6875 0
0.125 -0.6875 0
0 -0.6875 0
0.0625 -0.6875 0
0 -0.625 0
0.0625 -0.625 0
0.0625 -0.6875 0
0.125 -0.6875 0
0.0625 -0.625 0
0.125 -0.625 0
-0.75 -0.125 0
-0.6875 -0.125 0
-0.75 -0.0625 0
-0.6875 -0.0625 0
-0.6875 -0.125 0
-0.625 -0.125 0
-0.6875 -0.0625 0
-0.625 -0.0625 0
-0.75 -0.0625 0
-0.6875 -0.0625 0
-0.75 0 0
-0.6875 0 0
-0.5625 0 0
-0.5 0 0
-0.5625 0.0625 0
-0.5 0.0625 0
-0.625 0.0625 0
-0.5625 0.0625 0
-0.625 0.125 0
-0.5625 0.125 0
-0.5625 0.0625 0
-0.5 0.0625 0
-0.5625 0.125 0
-0.5 0.125 0
0 -0.625 0
0.0625 -0.625 0
0 -0.5625 0
0.0625 -0.5625 0
0.0625 -0.625 0
0.125 -0.625 0
0.0625 -0.5625 0
0.125 -0.5625 0
0 -0.5625 0
0.0625 -0.5625 0
0 -0.5 0
0.0625 -0.5 0
0.0625 -0.5625 0
0.125 -0.5625 0
0.0625 -0.5 0
0.125 -0.5 0
-0.625 0.125 0
-0.5625 0.125 0
-0.625 0.1875 0
-0.5625 0.1875 0
-0.625 0.1875 0
-0.5625 0.1875 0
-0.625 0.25 0
-0.5625 0.25 0
0 -0.25 0
0.0625 -0.25 0
0 -0.1875 0
0.0625 -0.1875 0
0.0625 -0.25 0
0.125 -0.25 0
0.0625 -0.1875 0
0.125 -0.1875 0
0 -0.1875 0
0.0625 -0.1875 0
0 -0.125 0
0.0625 -0.125 0
0.0625 -0.1875 0
0.125 -0.1875 0
0.0625 -0.125 0
0.125 -0.125 0
0 -0.5 0
0.0625 -0.5 0
0 -0.4375 0
0.0625 -0.4375 0
0.0625 -0.5 0
0.125 -0.5 0
0.0625 -0.4375 0
0.125 -0.4375 0
0 -0.4375 0
0.0625 -0.4375 0
0 -0.375 0
0.0625 -0.375 0
0.0625 -0.4375 0
0.125 -0.4375 0
0.0625 -0.375 0
0.125 -0.375 0
-0.875 0.375 0
-0.8125 0.375 0
-0.875 0.4375 0
-0.8125 0.4375 0
-0.8125 0.375 0
-0.75 0.375 0
-0.8125 0.4375 0
-0.75 0.4375 0
-0.875 0.4375 0
-0.8125 0.4375 0
-0.875 0.5 0
-0.8125 0.5 0
-0.75 0.25 0
-0.6875 0.25 0
-0.75 0.3125 0
-0.6875 0.3125 0
-0.75 0.3125 0
-0.6875 0.3125 0
-0.75 0.375 0
-0.6875 0.375 0
-0.6875 0.3125 0
-0.625 0.3125 0
-0.6875 0.375 0
-0.625 0.375 0
-0.5 0 0
-0.4375 0 0
-0.5 0.0625 0
-0.4375 0.0625 0
-0.4375 0 0
-0.375 0 0
-0.4375 0.0625 0
-0.375 0.0625 0
-0.5 0.0625 0
-0.4375 0.0625 0
-0.5 0.125 0
-0.4375 0.125 0
-0.4375 0.0625 0
-0.375 0.0625 0
-0.4375 0.125 0
-0.375 0.125 0
-0.25 -0.75 0
-0.1875 -0.75 0
-0.25 -0.6875 0
-0.1875 -0.6875 0
-0.1875 -0.75 0
-0.125 -0.75 0
-0.1875 -0.6875 0
-0.125 -0.6875 0
-0.25 -0.6875 0
-0.1875 -0.6875 0
-0.25 -0.625 0
-0.1875 -0.625 0
-0.1875 -0.6875 0
-0.125 -0.6875 0
-0.1875 -0.625 0
-0.125 -0.625 0
-0.25 -0.125 0
-0.1875 -0.125 0
-0.25 -0.0625 0
-0.1875 -0.0625 0
-0.1875 -0.125 0
-0.125 -0.125 0
-0.1875 -0.0625 0
-0.125 -0.0625 0
-0.25 -0.0625 0
-0.1875 -0.0625 0
-0.25 0 0
-0.1875 0 0
-0.1875 -0.0625 0
-0.125 -0.0625 0
-0.1875 0 0
-0.125 0 0
-0.0625 0.125 0
0 0.125 0
-0.0625 0.1875 0
0 0.1875 0
-0.0625 0.1875 0
0 0.1875 0
-0.0625 0.25 0
0 0.25 0
-1 0.5 0
-0.9375 0.5 0
-1 0.5625 0
-0.9375 0.5625 0
-0.9375 0.5 0
-0.875 0.5 0
-0.9375 0.5625 0
-0.875 0.5625 0
-1 0.5625 0
-0.9375 0.5625 0
-1 0.625 0
-0.9375 0.625 0
-0.9375 0.5625 0
-0.875 0.5625 0
-0.9375 0.625 0
-0.875 0.625 0
-0.8125 0.5 0
-0.75 0.5 0
-0.8125 0.5625 0
-0.75 0.5625 0
-0.125 -0.125 0
[...]
  <PointData Scalars="scalars">
    <DataArray type="Float32" Name="U" format="ascii">
0 0 0 8.99901e-05 0 0 8.99901e-05 0.000196175 0 8.99901e-05 0 0.000179433 8.99901e-05 0.000196175 0.000179433 0.00036196 0 0 0.000353829 0 0.000362732 0 0 0 0.000334521 0.000488565 0.000502013 0.000720357 0.000488565 0.000606426 0.000720357 0.000879031 0.000606426 0.000682656 0.000879031 0.000933048 0 8.97165e-05 0 0.000120309 8.97165e-05 0.000179433 0.000120309 0.000238927 0 0.000120309 0 0.000169698 0.000120309 0.000238927 0.000169698 0.000334521 0 0.000169698 0 0.000252781 0.000169698 0.000334521 0.000252781 0.000502013 0 0.000252781 0 0.000391804 0.000534477 0.000578367 0.00071193 0.000765994 0.00071193 0.000765994 0.000791792 0.000843004 0.000791792 0.000843004 0.000760319 0.000794797 0.000715331 0.000760319 0.000633157 0.000619599 0.000760319 0.000794797 0.000619599 0.000622257 0.000619599 0.000622257 0.000366155 0.000344078 0.000448414 0.000539561 0.000540779 0.000629745 0.000539561 0.000630815 0.000629745 0.000716496 0.000540779 0.000629745 0.000613361 0.000667696 0.000629745 0.000716496 0.000667696 0.000715331 0.000613361 0.000667696 0.000701343 0.000673982 0.000667696 0.000715331 0.000673982 0.000633157 0 0 0.000248012 0.000284673 0 0 0.000284673 0.000310618 0.000284673 0.000310618 0.000534477 0.000578367 0.00036196 0.000451328 0.000456546 0.000544415 0.000451328 0.000540779 0.000544415 0.000613361 0.000456546 0.000544415 0.000606426 0.000682656 0.000544415 0.000613361 0.000682656 0.000701343 0.000578367 0.000590289 0.000765994 0.000776455 0.000590289 0.000557476 0.000776455 0.000734147 0 0 0.000310618 0.000317824 0 0 0.000317824 0.000299732 0.000310618 0.000317824 0.000578367 0.000590289 0 0 0.000299732 0.000256395 0 0 0.000256395 0.000176915 0.000256395 0.000176915 0.000476867 0.000353829 0.000557476 0.000476867 0.000734147 0.000627765 0.000476867 0.000353829 0.000627765 0.00045856 0.000353829 0.000176915 0.00045856 0.000243147 0.000176915 0 0.000243147 0 0.000243147 0 0.000265252 0 0.000701343 0.000673982 0.000865707 0.000685485 0 0.000855901 0 0.00112437 0.000855901 0.00170048 0.00112437 0.0022316 0 0.00112437 0 0.00131079 0.000622257 0.000612627 0.000344078 0.000336228 0.000344078 0.000336228 0 0 0.000336228 0.000310997 0 0 0.000265252 0 0.000246276 0 0.000463208 0.000246276 0.000362732 0.000181366 0.000246276 0 0.000181366 0 0.000486137 0.000362732 0.000265046 0.000181366 0.000310997 0.000265046 0 0 0.000265046 0.000181366 0 0 0.000179433 0.000270696 0.000238927 0.000355749 0.000270696 0.00036196 0.000355749 0.000456546 0 0 9.80873e-05 0.000133233 0 0 0.000133233 0.000169197 9.80873e-05 0.000133233 0.000196175 0.000255789 0.000133233 0.000169197 0.000255789 0.00032358 0 0.000391804 0 0.000596896 0.000391804 0.000772266 0.000596896 0.00117863 0 0.000596896 0 0.000855901 0 0 0.000169197 0.000208073 0 0 0.000208073 0.000248012 0.000169197 0.000208073 0.00032358 0.000394923 0.000208073 0.000248012 0.000394923 0.000468133 0.000196175 0.000255789 0.000279067 0.00036103 0.000255789 0.00032358 0.00036103 0.000448414 0.000279067 0.00036103 0.00036196 0.000451328 0.00036103 0.000448414 0.000451328 0.000540779 0 0.000623338 0 0 0.00275016 0.00296428 0.00320642 0.00345625 0.00285521 0.00320642 0.00323793 0.00364301 0.00320642 0.00345625 0.00364301 0.00393483 0.00275707 0.00323793 0.00303597 0.00357038 0.00245161 0.00303597 0.0026128 0.0032364 0.00303597 0.00357038 0.0032364 0.00381141 0.00323793 0.00364301 0.00357038 0.0040183 0.00175779 0.00143394 0.00212692 0.00172375 0.00143394 0.00101638 0.00172375 0.00121385 0.00172375 0.00121385 0.00204869 0.00144225 0.00132168 0.00198352 0.0012402 0.00186456 0.00198352 0.00264867 0.00186456 0.00248823 0.0012402 0.00186456 0.00109201 0.00164333 0.00186456 0.00248823 0.00164333 0.00219467 0.00109201 0.00164333 0.000883486 0.00132921 0.00164333 0.00219467 0.00132921 0.00177513 0.00132921 0.00177513 0.000934198 0.00124558 0.000879031 0.000906039 0.00107484 0.00112149 0.000906039 0.000933048 0.00112149 0.00112729 0.00112149 0.00112729 0.00138674 0.00138386 0.000933048 0.000920743 0.00112729 0.00108969 0.000920743 0.000865707 0.00108969 0.00100337 0.00112729 0.00108969 0.00138386 0.00132432 0.00108969 0.00100337 0.00132432 0.00119618 0.000682656 0.000692 0.000807852 0.000793374 0.000692 0.000701343 0.000793374 0.000783525 0.000807852 0.000793374 0.000933048 0.000920743 0.000793374 0.000783525 0.000920743 0.000865707 0.000252781 0.000377397 0.000322293 0.000470787 0.000377397 0.000502013 0.000470787 0.000619625 0.000322293 0.000470787 0.000391804 0.000582035 0.000470787 0.000619625 0.000582035 0.000772266 0.000720357 0.000799694 0.000889644 0.000996578 0.000799694 0.000879031 0.000996578 0.00107484 0.000889644 0.000996578 0.00110967 0.00124091 0.000996578 0.00107484 0.00124091 0.00133662 0.000225854 0.000194136 0 0 0.000468133 0.00049849 0.000557035 0.000596833 0.00049849 0.000534477 0.000596833 0.000623203 0.000557035 0.000596833 0.000630815 0.000667047 0.000596833 0.000623203 0.000667047 0.00071193 0.000502013 0.000611185 0.000619625 0.000763226 0.000611185 0.000720357 0.000763226 0.000889644 0.000619625 0.000763226 0.000772266 0.000952293 0.00124091 0.00133662 0.00154217 0.0016594 0.00137965 0.00154217 0.00169489 0.00189951 0.00154217 0.0016594 0.00189951 0.00204786 0.000630815 0.000667047 0.000673655 0.000723816 0.000667047 0.00071193 0.000723816 0.000751861 0.000673655 0.000723816 0.000716496 0.000747243 0.000723816 0.000751861 0.000747243 0.000791792 0.00169489 0.00189951 0.00205976 0.00230225 0.00205976 0.00230225 0.00245244 0.00275016 0.000633157 0.000626378 0.000564666 0.000525623 0.000626378 0.000619599 0.000525623 0.000492877 0.000564666 0.000525623 0.000465525 0.000395636 0.000525623 0.000492877 0.000395636 0.000366155 0.000716496 0.000747243 0.000715913 0.000756538 0.000747243 0.000791792 0.000756538 0.000776056 0.000715913 0.000756538 0.000715331 0.000737825 0.000756538 0.000776056 0.000737825 0.000760319 0.00112437 0.00167798 0.00121758 0.00184405 0.00167798 0.0022316 0.00184405 0.00245161 0.00121758 0.00184405 0.00131079 0.00196172 0.00170048 0.00209213 0.00196604 0.00243336 0.00196604 0.00243336 0.0022316 0.00275707 0.00243336 0.00285521 0.00275707 0.00323793 0.00133662 0.00138674 0.0016594 0.00171828 0.00138674 0.00138386 0.00171828 0.0017025 0.0016594 0.00171828 0.00204786 0.00211817 0.00171828 0.0017025 0.00211817 0.00209589 0.00032358 0.000359251 0.000385997 0.000431141 0.000359251 0.000394923 0.000431141 0.000473917 0.000385997 0.000431141 0.000448414 0.000493988 0.000431141 0.000473917 0.000493988 0.000539561 0.000865707 0.000775596 0.00100337 0.000873036 0.000775596 0.000685485 0.000873036 0.000702573 0.00100337 0.000873036 0.00119618 0.00100665 0.000873036 0.000702573 0.00100665 0.00076012 0.000529238 0 0.000627331 0 0.000627331 0 0.000744629 0 0 0.000655393 0 0.00067053 0.000655393 0.00131079 0.00067053 0.00134434 0 0.00067053 0 0.000658938 0.00067053 0.00134434 0.000658938 0.00132168 0.00196172 0.0026128 0.00201396 0.00268499 0.000685485 0.000569792 0.000702573 0.000509239 0.000702573 0.000509239 0.00076012 0.000451816 0 0.000543785 0 0.000440675 0.000543785 0.00109201 0.000440675 0.000883486 0 0.000440675 0 0.000311669 0.000440675 0.000883486 0.000311669 0.000623338 0.000623338 0.000934198 0.000311669 0.000482198 0.000311669 0.000482198 0 0 0.000482198 0.000641029 0 0 0.000858138 0.000461588 0.00101638 0.000529238 0.000461588 0 0.000529238 0 0.000394923 0.000431528 0.000473917 0.000516639 0.000431528 0.000468133 0.000516639 0.000557035 0.000473917 0.000516639 0.000539561 0.000585188 0.000516639 0.000557035 0.000585188 0.000630815 0.000248012 0.000266343 0.000358073 0.000389868 0.000266343 0.000284673 0.000389868 0.000409575 0.000358073 0.000389868 0.000468133 0.00049849 0.000389868 0.000409575 0.00049849 0.000534477 0.000317824 0.000308778 0.000454056 0.000452244 0.000308778 0.000299732 0.000452244 0.000433334 0.000454056 0.000452244 0.000590289 0.000573882 0.000452244 0.000433334 0.000573882 0.000557476 0.000299732 0.000278064 0.000433334 0.000408019 0.000278064 0.000256395 0.000408019 0.000366631 0.000433334 0.000408019 0.000557476 0.000517172 0.000408019 0.000366631 0.000517172 0.000476867 0.000734147 0.000680956 0.000778088 0.000731144 0.000680956 0.000627765 0.000731144 0.000663659 0.000778088 0.000731144 0.00079438 0.000745945 0.000731144 0.000663659 0.000745945 0.000677992 0.000366155 0.000355117 0.000194136 0.000181347 0.000355117 0.000344078 0.000181347 0.000172039 0.000194136 0.000181347 0 0 0.000181347 0.000172039 0 0 0.000627765 0.000543162 0.000663659 0.000584067 0.000543162 0.00045856 0.000584067 0.00048537 0.000663659 0.000584067 0.000677992 0.000595514 0.000584067 0.00048537 0.000595514 0.000496338 0.00045856 0.000350853 0.00048537 0.000377651 0.000350853 0.000243147 0.000377651 0.000254199 0.00048537 0.000377651 0.000496338 0.000384646 0.000377651 0.000254199 0.000384646 0.000265252 0.000844086 0.000827184 0.000833737 0.000817423 0.000827184 0.00079438 0.000817423 0.000783901 0.000833737 0.000817423 0.000787668 0.000771713 0.000817423 0.000783901 0.000771713 0.000739009 0.000794797 0.0007921 0.000708527 0.000721549 0.0007921 0.000787668 0.000721549 0.000714779 0.000708527 0.000721549 0.000622257 0.000617442 0.000721549 0.000714779 0.000617442 0.000612627 0.000787668 0.000771713 0.000714779 0.000699565 0.000771713 0.000739009 0.000699565 0.000669095 0.000714779 0.000699565 0.000612627 0.000594553 0.000699565 0.000669095 0.000594553 0.000569525 0.000612627 0.000594553 0.000474427 0.000470639 0.000594553 0.000569525 0.000470639 0.000449238 0.000474427 0.000470639 0.000336228 0.000323612 0.000470639 0.000449238 0.000323612 0.000310997 0.000772266 0.000952293 0.000975448 0.00118278 0.000952293 0.00110967 0.00118278 0.00137965 0.000975448 0.00118278 0.00117863 0.00145219 0.00117863 0.00145219 0.00142767 0.00176123 0.00142767 0.00176123 0.00170048 0.00209213 0.00176123 0.00205976 0.00209213 0.00245244 0.00079438 0.000745945 0.000783901 0.000735606 0.000745945 0.000677992 0.000735606 0.000668352 0.000783901 0.000735606 0.000739009 0.000693225 0.000735606 0.000668352 0.000693225 0.000630042 0.000677992 0.000595514 0.000668352 0.000587536 0.000595514 0.000496338 0.000587536 0.00048868 0.000668352 0.000587536 0.000630042 0.000552898 0.000587536 0.00048868 0.000552898 0.000463208 0.000739009 0.000693225 0.000669095 0.000627614 0.000693225 0.000630042 0.000627614 0.000569598 0.000669095 0.000627614 0.000569525 0.000532691 0.000627614 0.000569598 0.000532691 0.000486137 0.000630042 0.000552898 0.000569598 0.000501243 0.000552898 0.000463208 0.000501243 0.00041297 0.000569598 0.000501243 0.000486137 0.000424435 0.000501243 0.00041297 0.000424435 0.000362732 0.000496338 0.000384646 0.00048868 0.000379887 0.000384646 0.000265252 0.000379887 0.000255764 0.00048868 0.000379887 0.000463208 0.000354742 0.000379887 0.000255764 0.000354742 0.000246276 0.000765994 0.000771224 0.000804499 0.00082566 0.000771224 0.000776455 0.00082566 0.000824994 0.000804499 0.00082566 0.000843004 0.000846135 0.00082566 0.000824994 0.000846135 0.000844086 0 0.000658938 0 0.00061901 0 0.00061901 0 0.000543785 0.0019769 0.00175779 0.00239979 0.00212692 0.000776455 0.000755301 0.000824994 0.000808194 0.000755301 0.000734147 0.000808194 0.000778088 0.000569525 0.000532691 0.000449238 0.000420847 0.000532691 0.000486137 0.000420847 0.000375592 0.000449238 0.000420847 0.000310997 0.000288022 0.000420847 0.000375592 0.000288022 0.000265046 0.000238927 0.000297338 0.000286724 0.000348627 0.000297338 0.000355749 0.000348627 0.000410661 0.000286724 0.000348627 0.000334521 0.000411543 0.000348627 0.000410661 0.000411543 0.000488565 0.000355749 0.000406148 0.000410661 0.000470436 0.000406148 0.000456546 0.000470436 0.000531486 0.000410661 0.000470436 0.000488565 0.000547496 0.000470436 0.000531486 0.000547496 0.000606426 0.000596896 0.000887763 0.000726399 0.00107934 0.000887763 0.00117863 0.00107934 0.00142767 0.000726399 0.00107934 0.000855901 0.00127819 0.00107934 0.00142767 0.00127819 0.00170048 0.000843004 0.000846135 0.0008189 0.000836384 0.000846135 0.000844086 0.000836384 0.000833737 0.0008189 0.000836384 0.000794797 0.0007921 0.000673982 0.000653569 0.000679734 0.00061734 0.000653569 0.000633157 0.00061734 0.000564666 0.000679734 0.00061734 0.000685485 0.000569792 0.00061734 0.000564666 0.000569792 0.000465525 0.00204869 0.00144225 0.00239631 0.00168975 0.000744629 0 0.00087298 0 0.00168975 0.00087298 0.00192211 0.000995184 0.00087298 0 0.000995184 0 0.000995184 0 0.00109848 0 0.00109848 0 0.00118014 0 0.0026128 0.0032364 0.00268499 0.00333065 0.0032364 0.00381141 0.00333065 0.00391952 0.00268499 0.00333065 0.00264867 0.0032836 0.00154794 0.00182931 0.00080131 0.000946004 0.000641029 0.00080131 0 0 0.00080131 0.000946004 0 0 0.000946004 0.00106605 0 0 0.00106605 0.00115875 0 0 0.00279778 0.00228037 0.0026922 0.00219743 0.0026922 0.00219743 0.0025596 0.00209105 0.00278524 0.00268341 0.00226934 0.00218955 0.00268341 0.00255371 0.00218955 0.00208559 0.00345625 0.00354335 0.00369554 0.00378326 0.00354335 0.00357803 0.00378326 0.00383298 0.00369554 0.00378326 0.00393483 0.00402211 0.00357803 0.00358543 0.00383298 0.00384046 0.00358543 0.00354586 0.00384046 0.00380178 0.00383298 0.00384046 0.0040725 0.00407976 0.00384046 0.00380178 0.00407976 0.00403943 0.00245244 0.0026013 0.00264579 0.00282593 0.0026013 0.00275016 0.00282593 0.00297829 0.00264579 0.00282593 0.00285521 0.00303081 0.00282593 0.00297829 0.00303081 0.00320642 0.0022316 0.00249434 0.00234161 0.00263106 0.00249434 0.00275707 0.00263106 0.00289652 0.00234161 0.00263106 0.00245161 0.00274379 0.00263106 0.00289652 0.00274379 0.00303597 0.00354586 0.00346751 0.00380178 0.0037131 0.00380178 0.0037131 0.00403943 0.00394806 0.0037131 0.00357892 0.00394806 0.00380708 0.00357892 0.0033955 0.00380708 0.00361138 0.0033955 0.00316386 0.00361138 0.0033663 0.00393483 0.00402211 0.00414324 0.00424189 0.00402211 0.0040725 0.00424189 0.0042988 0.00414324 0.00424189 0.00434056 0.00444317 0.000883486 0.00110635 0.000753412 0.00095026 0.00110635 0.00132921 0.00095026 0.0011317 0.000753412 0.00095026 0.000623338 0.000778768 0.00095026 0.0011317 0.000778768 0.000934198 0.00107484 0.00109816 0.00120573 0.00122694 0.00109816 0.00112149 0.00122694 0.00125411 0.00120573 0.00122694 0.00133662 0.00136168 0.00122694 0.00125411 0.00136168 0.00138674 0.000395636 0.000380896 0.000324202 0.00029773 0.000380896 0.000366155 0.00029773 0.000280146 0.000324202 0.00029773 0.000225854 0.000209995 0.00029773 0.000280146 0.000209995 0.000194136 0.00316386 0.00288621 0.0033663 0.00306933 0.00288621 0.00256096 0.00306933 0.00272793 0.00239631 0.00204303 0.00256096 0.00220007 0.00204303 0.00168975 0.00220007 0.00180593 0.00256096 0.00220007 0.00272793 0.00234382 0.00220007 0.00180593 0.00234382 0.00192211 0.000763226 0.000826435 0.00085776 0.000924484 0.000826435 0.000889644 0.000924484 0.000999656 0.00085776 0.000924484 0.000952293 0.00103098 0.000924484 0.000999656 0.00103098 0.00110967 0.00110967 0.00117529 0.00124466 0.00131456 0.00117529 0.00124091 0.00131456 0.00139154 0.00124466 0.00131456 0.00137965 0.00146091 0.00131456 0.00139154 0.00146091 0.00154217 0.00364301 0.00378892 0.00383066 0.0040021 0.00378892 0.00393483 0.0040021 0.00414324 0.00383066 0.0040021 0.0040183 0.00419022 0.0040021 0.00414324 0.00419022 0.00434056 0.00357038 0.00379434 0.0036909 0.00393937 0.00379434 0.0040183 0.00393937 0.00416109 0.0036909 0.00393937 0.00381141 0.00405399 0.00333065 0.00362509 0.00330712 0.00362365 0.00362509 0.00391952 0.00362365 0.0039104 0.00330712 0.00362365 0.0032836 0.00357832 0.00362365 0.0039104 0.00357832 0.00386523 0.00381141 0.00405399 0.00386547 0.00413427 0.00405399 0.0042872 0.00413427 0.00437105 0.00386547 0.00413427 0.00391952 0.00417665 0.00189951 0.00197369 0.00210088 0.00218639 0.00197369 0.00204786 0.00218639 0.00224965 0.00210088 0.00218639 0.00230225 0.00241037 0.00218639 0.00224965 0.00241037 0.00248131 0.00230225 0.00241037 0.00252621 0.00263414 0.00241037 0.00248131 0.00263414 0.00271201 0.00252621 0.00263414 0.00275016 0.00285722 0.00263414 0.00271201 0.00285722 0.00296428 0.00357832 0.00386523 0.00349464 0.00377153 0.00349464 0.00377153 0.00336335 0.00363205 0.00419022 0.00434056 0.00435394 0.0045035 0.00416109 0.00435394 0.0042872 0.00447964 0.00336335 0.00363205 0.00318767 0.00344178 0.00318767 0.00344178 0.00296776 0.00320586 0.00184405 0.00214783 0.00190289 0.00222807 0.00214783 0.00245161 0.00222807 0.0025322 0.00190289 0.00222807 0.00196172 0.00228726 0.00222807 0.0025322 0.00228726 0.0026128 0.00296776 0.00320586 0.00270518 0.00292138 0.00270518 0.00292138 0.0024027 0.00259521 0.00209213 0.00227229 0.00226275 0.00246485 0.00227229 0.00245244 0.00246485 0.00264579 0.00226275 0.00246485 0.00243336 0.00264429 0.00246485 0.00264579 0.00264429 0.00285521 0.000504645 0 0.000460202 0 0.000460202 0 0.000408556 0 0.00219388 0.0024027 0.00189221 0.00206288 0.0024027 0.00259521 0.00206288 0.00222875 0.00189221 0.00206288 0.00154794 0.00168862 0.00206288 0.00222875 0.00168862 0.00182931 0.000408556 0 0.00035117 0 0.00035117 0 0.0002856 0 0.00204786 0.00208301 0.00224965 0.00230867 0.00208301 0.00211817 0.00230867 0.00232537 0.00224965 0.00230867 0.00248131 0.00254443 0.00230867 0.00232537 0.00254443 0.00256597 0.00211817 0.00210703 0.00232537 0.00233824 0.00210703 0.00209589 0.00233824 0.00230687 0.00232537 0.00233824 0.00256597 0.00257747 0.00233824 0.00230687 0.00257747 0.00254665 0.00248131 0.00254443 0.00271201 0.0027831 0.00254443 0.00256597 0.0027831 0.00280612 0.00271201 0.0027831 0.00296428 0.00303588 0.0027831 0.00280612 0.00303588 0.00306285 0.00256597 0.00257747 0.00280612 0.00281871 0.00257747 0.00254665 0.00281871 0.00277963 0.00280612 0.00281871 0.00306285 0.00307743 0.00281871 0.00277963 0.00307743 0.00303188 0.000503493 0.000459443 0 0 0.000459443 0.000408087 0 0 0.000408087 0.000350905 0 0 0.000350905 0.000285469 0 0 0.00212692 0.00192533 0.00231562 0.00211544 0.00192533 0.00172375 0.00211544 0.00188622 0.00231562 0.00211544 0.00252944 0.00230457 0.00211544 0.00188622 0.00230457 0.00204869 0.00101638 0.00077281 0.00111511 0.000852129 0.00077281 0.000529238 0.000852129 0.000578285 0.00111511 0.000852129 0.00121385 0.000935333 0.000852129 0.000578285 0.000935333 0.000627331 0.00121385 0.000935333 0.00132805 0.00101631 0.000935333 0.000627331 0.00101631 0.00068598 0.00132805 0.00101631 0.00144225 0.00110859 0.00101631 0.00068598 0.00110859 0.000744629 0.00131079 0.00163625 0.00132756 0.00166629 0.00163625 0.00196172 0.00166629 0.00198784 0.00132756 0.00166629 0.00134434 0.00167191 0.00166629 0.00198784 0.00167191 0.00201396 0.00134434 0.00167191 0.00133301 0.00167676 0.00167191 0.00201396 0.00167676 0.00201459 0.00133301 0.00167676 0.00132168 0.0016526 0.00167676 0.00201459 0.0016526 0.00198352 0.00201396 0.00234947 0.00201459 0.00234974 0.00234947 0.00268499 0.00234974 0.00266683 0.00201459 0.00234974 0.00198352 0.0023161 0.00234974 0.00266683 0.0023161 0.00264867 0.0002856 0 0.000222556 0 0.000222556 0 0.000151285 0 0.000285469 0.000222509 0 0 0.000222509 0.000151267 0 0 0.000569792 0.000517659 0.000539515 0.000468059 0.000517659 0.000465525 0.000468059 0.000408878 0.000539515 0.000468059 0.000509239 0.000407633 0.000468059 0.000408878 0.000407633 0.000324768 0.000934198 0.00108989 0.000708198 0.000834743 0.00108989 0.00124558 0.000834743 0.000953665 0.000708198 0.000834743 0.000482198 0.000561614 0.000834743 0.000953665 0.000561614 0.000641029 0.00296407 0.00286111 0.00321744 0.00310003 0.00329532 0.00321744 0.00354586 0.00346751 0.00321744 0.00310003 0.00346751 0.00334053 0.00286111 0.00270991 0.00310003 0.00294286 0.00270991 0.00252944 0.00294286 0.00273943 0.00310003 0.00294286 0.00334053 0.00316992 0.00294286 0.00273943 0.00316992 0.00295273 0.00252944 0.00230457 0.00273943 0.00250191 0.00230457 0.00204869 0.00250191 0.0022225 0.00273943 0.00250191 0.00295273 0.00269388 0.00250191 0.0022225 0.00269388 0.00239631 0.00118278 0.00128122 0