<?xml version="1.0" ?> 
<!-- 
# vtk DataFile Version 3.0
#This file was generated by the deal.II library on 21:45:38 at 2021/4/29
-->
<VTKFile type="UnstructuredGrid" version="0.1" byte_order="LittleEndian">
<UnstructuredGrid>
<Piece NumberOfPoints="65536" NumberOfCells="16384" >
  <Points>
    <DataArray type="Float32" NumberOfComponents="3" format="ascii">
-1 -1 0
-0.984375 -1 0
-1 -0.984375 0
-0.984375 -0.984375 0
-0.984375 -1 0
-0.96875 -1 0
-0.984375 -0.984375 0
-0.96875 -0.984375 0
-1 -0.984375 0
-0.984375 -0.984375 0
-1 -0.96875 0
-0.984375 -0.96875 0
-0.984375 -0.984375 0
-0.96875 -0.984375 0
-0.984375 -0.96875 0
-0.96875 -0.96875 0
-0.96875 -1 0
-0.953125 -1 0
-0.96875 -0.984375 0
-0.953125 -0.984375 0
-0.953125 -1 0
-0.9375 -1 0
-0.953125 -0.984375 0
-0.9375 -0.984375 0
-0.96875 -0.984375 0
-0.953125 -0.984375 0
-0.96875 -0.96875 0
-0.953125 -0.96875 0
-0.953125 -0.984375 0
-0.9375 -0.984375 0
-0.953125 -0.96875 0
-0.9375 -0.96875 0
-1 -0.96875 0
-0.984375 -0.96875 0
-1 -0.953125 0
-0.984375 -0.953125 0
-0.984375 -0.96875 0
-0.96875 -0.96875 0
-0.984375 -0.953125 0
-0.96875 -0.953125 0
-1 -0.953125 0
-0.984375 -0.953125 0
-1 -0.9375 0
-0.984375 -0.9375 0
-0.984375 -0.953125 0
-0.96875 -0.953125 0
-0.984375 -0.9375 0
-0.96875 -0.9375 0
-0.96875 -0.96875 0
-0.953125 -0.96875 0
-0.96875 -0.953125 0
-0.953125 -0.953125 0
-0.953125 -0.96875 0
-0.9375 -0.96875 0
-0.953125 -0.953125 0
-0.9375 -0.953125 0
-0.96875 -0.953125 0
-0.953125 -0.953125 0
-0.96875 -0.9375 0
-0.953125 -0.9375 0
-0.953125 -0.953125 0
-0.9375 -0.953125 0
-0.953125 -0.9375 0
-0.9375 -0.9375 0
-0.9375 -1 0
-0.921875 -1 0
-0.9375 -0.984375 0
-0.921875 -0.984375 0
-0.921875 -1 0
-0.90625 -1 0
-0.921875 -0.984375 0
-0.90625 -0.984375 0
-0.9375 -0.984375 0
-0.921875 -0.984375 0
-0.9375 -0.96875 0
-0.921875 -0.96875 0
-0.921875 -0.984375 0
-0.90625 -0.984375 0
-0.921875 -0.96875 0
-0.90625 -0.96875 0
-0.90625 -1 0
-0.890625 -1 0
-0.90625 -0.984375 0
-0.890625 -0.984375 0
-0.890625 -1 0
-0.875 -1 0
-0.890625 -0.984375 0
-0.875 -0.984375 0
-0.90625 -0.984375 0
-0.890625 -0.984375 0
-0.90625 -0.96875 0
-0.890625 -0.96875 0
-0.890625 -0.984375 0
-0.875 -0.984375 0
-0.890625 -0.96875 0
-0.875 -0.96875 0
-0.9375 -0.96875 0
-0.921875 -0.96875 0
-0.9375 -0.953125 0
-0.921875 -0.953125 0
-0.921875 -0.96875 0
-0.90625 -0.96875 0
-0.921875 -0.953125 0
-0.90625 -0.953125 0
-0.9375 -0.953125 0
-0.921875 -0.953125 0
-0.9375 -0.9375 0
-0.921875 -0.9375 0
-0.921875 -0.953125 0
-0.90625 -0.953125 0
-0.921875 -0.9375 0
-0.90625 -0.9375 0
-0.90625 -0.96875 0
-0.890625 -0.96875 0
-0.90625 -0.953125 0
-0.890625 -0.953125 0
-0.890625 -0.96875 0
-0.875 -0.96875 0
-0.890625 -0.953125 0
-0.875 -0.953125 0
-0.90625 -0.953125 0
-0.890625 -0.953125 0
-0.90625 -0.9375 0
-0.890625 -0.9375 0
-0.890625 -0.953125 0
-0.875 -0.953125 0
-0.890625 -0.9375 0
-0.875 -0.9375 0
-1 -0.9375 0
-0.984375 -0.9375 0
-1 -0.921875 0
-0.984375 -0.921875 0
-0.984375 -0.9375 0
-0.96875 -0.9375 0
-0.984375 -0.921875 0
-0.96875 -0.921875 0
-1 -0.921875 0
-0.984375 -0.921875 0
-1 -0.90625 0
-0.984375 -0.90625 0
-0.984375 -0.921875 0
-0.96875 -0.921875 0
-0.984375 -0.90625 0
-0.96875 -0.90625 0
-0.96875 -0.9375 0
-0.953125 -0.9375 0
-0.96875 -0.921875 0
-0.953125 -0.921875 0
-0.953125 -0.9375 0
-0.9375 -0.9375 0
-0.953125 -0.921875 0
-0.9375 -0.921875 0
-0.96875 -0.921875 0
-0.953125 -0.921875 0
-0.96875 -0.90625 0
-0.953125 -0.90625 0
-0.953125 -0.921875 0
-0.9375 -0.921875 0
-0.953125 -0.90625 0
-0.9375 -0.90625 0
-1 -0.90625 0
-0.984375 -0.90625 0
-1 -0.890625 0
-0.984375 -0.890625 0
-0.984375 -0.90625 0
-0.96875 -0.90625 0
-0.984375 -0.890625 0
-0.96875 -0.890625 0
-1 -0.890625 0
-0.984375 -0.890625 0
-1 -0.875 0
-0.984375 -0.875 0
-0.984375 -0.890625 0
-0.96875 -0.890625 0
-0.984375 -0.875 0
-0.96875 -0.875 0
-0.96875 -0.90625 0
-0.953125 -0.90625 0
-0.96875 -0.890625 0
-0.953125 -0.890625 0
-0.953125 -0.90625 0
-0.9375 -0.90625 0
-0.953125 -0.890625 0
-0.9375 -0.890625 0
-0.96875 -0.890625 0
-0.953125 -0.890625 0
-0.96875 -0.875 0
-0.953125 -0.875 0
-0.953125 -0.890625 0
-0.9375 -0.890625 0
-0.953125 -0.875 0
-0.9375 -0.875 0
-0.9375 -0.9375 0
-0.921875 -0.9375 0
-0.9375 -0.921875 0
-0.921875 -0.921875 0
-0.921875 -0.9375 0
-0.90625 -0.9375 0
-0.921875 -0.921875 0
-0.90625 -0.921875 0
-0.9375 -0.921875 0
-0.921875 -0.921875 0
-0.9375 -0.90625 0
-0.921875 -0.90625 0
-0.921875 -0.921875 0
-0.90625 -0.921875 0
-0.921875 -0.90625 0
-0.90625 -0.90625 0
-0.90625 -0.9375 0
-0.890625 -0.9375 0
-0.90625 -0.921875 0
-0.890625 -0.921875 0
-0.890625 -0.9375 0
-0.875 -0.9375 0
-0.890625 -0.921875 0
-0.875 -0.921875 0
-0.90625 -0.921875 0
-0.890625 -0.921875 0
-0.90625 -0.90625 0
-0.890625 -0.90625 0
-0.890625 -0.921875 0
-0.875 -0.921875 0
-0.890625 -0.90625 0
-0.875 -0.90625 0
-0.9375 -0.90625 0
-0.921875 -0.90625 0
-0.9375 -0.890625 0
-0.921875 -0.890625 0
-0.921875 -0.90625 0
-0.90625 -0.90625 0
-0.921875 -0.890625 0
-0.90625 -0.890625 0
-0.9375 -0.890625 0
-0.921875 -0.890625 0
-0.9375 -0.875 0
-0.921875 -0.875 0
-0.921875 -0.890625 0
-0.90625 -0.890625 0
-0.921875 -0.875 0
-0.90625 -0.875 0
-0.90625 -0.90625 0
-0.890625 -0.90625 0
-0.90625 -0.890625 0
-0.890625 -0.890625 0
-0.890625 -0.90625 0
-0.875 -0.90625 0
-0.890625 -0.890625 0
-0.875 -0.890625 0
-0.90625 -0.890625 0
-0.890625 -0.890625 0
-0.90625 -0.875 0
-0.890625 -0.875 0
-0.890625 -0.890625 0
-0.875 -0.890625 0
-0.890625 -0.875 0
-0.875 -0.875 0
-0.875 -1 0
-0.859375 -1 0
-0.875 -0.984375 0
-0.859375 -0.984375 0
-0.859375 -1 0
-0.84375 -1 0
-0.859375 -0.984375 0
-0.84375 -0.984375 0
-0.875 -0.984375 0
-0.859375 -0.984375 0
-0.875 -0.96875 0
-0.859375 -0.96875 0
-0.859375 -0.984375 0
-0.84375 -0.984375 0
-0.859375 -0.96875 0
-0.84375 -0.96875 0
-0.84375 -1 0
-0.828125 -1 0
-0.84375 -0.984375 0
-0.828125 -0.984375 0
-0.828125 -1 0
-0.8125 -1 0
-0.828125 -0.984375 0
-0.8125 -0.984375 0
-0.84375 -0.984375 0
-0.828125 -0.984375 0
-0.84375 -0.96875 0
-0.828125 -0.96875 0
-0.828125 -0.984375 0
-0.8125 -0.984375 0
-0.828125 -0.96875 0
-0.8125 -0.96875 0
-0.875 -0.96875 0
-0.859375 -0.96875 0
-0.875 -0.953125 0
-0.859375 -0.953125 0
-0.859375 -0.96875 0
-0.84375 -0.96875 0
-0.859375 -0.953125 0
-0.84375 -0.953125 0
-0.875 -0.953125 0
-0.859375 -0.953125 0
-0.875 -0.9375 0
-0.859375 -0.9375 0
-0.859375 -0.953125 0
-0.84375 -0.953125 0
-0.859375 -0.9375 0
-0.84375 -0.9375 0
-0.84375 -0.96875 0
-0.828125 -0.96875 0
-0.84375 -0.953125 0
-0.828125 -0.953125 0
-0.828125 -0.96875 0
-0.8125 -0.96875 0
-0.828125 -0.953125 0
-0.8125 -0.953125 0
-0.84375 -0.953125 0
-0.828125 -0.953125 0
-0.84375 -0.9375 0
-0.828125 -0.9375 0
-0.828125 -0.953125 0
-0.8125 -0.953125 0
-0.828125 -0.9375 0
-0.8125 -0.9375 0
-0.8125 -1 0
-0.796875 -1 0
-0.8125 -0.984375 0
-0.796875 -0.984375 0
-0.796875 -1 0
-0.78125 -1 0
-0.796875 -0.984375 0
-0.78125 -0.984375 0
-0.8125 -0.984375 0
-0.796875 -0.984375 0
-0.8125 -0.96875 0
-0.796875 -0.96875 0
-0.796875 -0.984375 0
-0.78125 -0.984375 0
-0.796875 -0.96875 0
-0.78125 -0.96875 0
-0.78125 -1 0
-0.765625 -1 0
-0.78125 -0.984375 0
-0.765625 -0.984375 0
-0.765625 -1 0
-0.75 -1 0
-0.765625 -0.984375 0
-0.75 -0.984375 0
-0.78125 -0.984375 0
-0.765625 -0.984375 0
-0.78125 -0.96875 0
-0.765625 -0.96875 0
-0.765625 -0.984375 0
-0.75 -0.984375 0
-0.765625 -0.96875 0
-0.75 -0.96875 0
-0.8125 -0.96875 0
-0.796875 -0.96875 0
-0.8125 -0.953125 0
-0.796875 -0.953125 0
-0.796875 -0.96875 0
-0.78125 -0.96875 0
-0.796875 -0.953125 0
-0.78125 -0.953125 0
-0.8125 -0.953125 0
-0.796875 -0.953125 0
-0.8125 -0.9375 0
-0.796875 -0.9375 0
-0.796875 -0.953125 0
-0.78125 -0.953125 0
-0.796875 -0.9375 0
-0.78125 -0.9375 0
-0.78125 -0.96875 0
-0.765625 -0.96875 0
-0.78125 -0.953125 0
-0.765625 -0.953125 0
-0.765625 -0.96875 0
-0.75 -0.96875 0
-0.765625 -0.953125 0
-0.75 -0.953125 0
-0.78125 -0.953125 0
-0.765625 -0.953125 0
-0.78125 -0.9375 0
-0.765625 -0.9375 0
-0.765625 -0.953125 0
-0.75 -0.953125 0
-0.765625 -0.9375 0
-0.75 -0.9375 0
-0.875 -0.9375 0
-0.859375 -0.9375 0
-0.875 -0.921875 0
-0.859375 -0.921875 0
-0.859375 -0.9375 0
-0.84375 -0.9375 0
-0.859375 -0.921875 0
-0.84375 -0.921875 0
-0.875 -0.921875 0
-0.859375 -0.921875 0
-0.875 -0.90625 0
-0.859375 -0.90625 0
-0.859375 -0.921875 0
-0.84375 -0.921875 0
-0.859375 -0.90625 0
-0.84375 -0.90625 0
-0.84375 -0.9375 0
-0.828125 -0.9375 0
-0.84375 -0.921875 0
-0.828125 -0.921875 0
-0.828125 -0.9375 0
-0.8125 -0.9375 0
-0.828125 -0.921875 0
-0.8125 -0.921875 0
-0.84375 -0.921875 0
-0.828125 -0.921875 0
-0.84375 -0.90625 0
-0.828125 -0.90625 0
-0.828125 -0.921875 0
-0.8125 -0.921875 0
-0.828125 -0.90625 0
-0.8125 -0.90625 0
-0.875 -0.90625 0
-0.859375 -0.90625 0
-0.875 -0.890625 0
-0.859375 -0.890625 0
-0.859375 -0.90625 0
-0.84375 -0.90625 0
-0.859375 -0.890625 0
-0.84375 -0.890625 0
-0.875 -0.890625 0
-0.859375 -0.890625 0
-0.875 -0.875 0
-0.859375 -0.875 0
-0.859375 -0.890625 0
-0.84375 -0.890625 0
-0.859375 -0.875 0
-0.84375 -0.875 0
-0.84375 -0.90625 0
-0.828125 -0.90625 0
-0.84375 -0.890625 0
-0.828125 -0.890625 0
-0.828125 -0.90625 0
-0.8125 -0.90625 0
-0.828125 -0.890625 0
-0.8125 -0.890625 0
-0.84375 -0.890625 0
-0.828125 -0.890625 0
-0.84375 -0.875 0
-0.828125 -0.875 0
-0.828125 -0.890625 0
-0.8125 -0.890625 0
-0.828125 -0.875 0
-0.8125 -0.875 0
-0.8125 -0.9375 0
-0.796875 -0.9375 0
-0.8125 -0.921875 0
-0.796875 -0.921875 0
-0.796875 -0.9375 0
-0.78125 -0.9375 0
-0.796875 -0.921875 0
-0.78125 -0.921875 0
-0.8125 -0.921875 0
-0.796875 -0.921875 0
-0.8125 -0.90625 0
-0.796875 -0.90625 0
-0.796875 -0.921875 0
-0.78125 -0.921875 0
-0.796875 -0.90625 0
-0.78125 -0.90625 0
-0.78125 -0.9375 0
-0.765625 -0.9375 0
-0.78125 -0.921875 0
-0.765625 -0.921875 0
-0.765625 -0.9375 0
-0.75 -0.9375 0
-0.765625 -0.921875 0
-0.75 -0.921875 0
-0.78125 -0.921875 0
-0.765625 -0.921875 0
-0.78125 -0.90625 0
-0.765625 -0.90625 0
-0.765625 -0.921875 0
-0.75 -0.921875 0
-0.765625 -0.90625 0
-0.75 -0.90625 0
-0.8125 -0.90625 0
-0.796875 -0.90625 0
-0.8125 -0.890625 0
-0.796875 -0.890625 0
-0.796875 -0.90625 0
[...]
  <PointData Scalars="scalars">
    <DataArray type="Float32" Name="U" format="ascii">
0 0 0 -7.61691e-05 0 0 -7.61691e-05 -0.00015225 0 -7.61691e-05 0 -0.000151099 -7.61691e-05 -0.00015225 -0.000151099 -0.000302463 0 0 -0.00015225 -0.000229237 0 0 -0.000229237 -0.000305716 -0.00015225 -0.000229237 -0.000302463 -0.000455046 -0.000229237 -0.000305716 -0.000455046 -0.000608975 0 -0.000151099 0 -0.000236624 -0.000151099 -0.000302463 -0.000236624 -0.000475273 0 -0.000236624 0 -0.000307411 -0.000236624 -0.000475273 -0.000307411 -0.00061389 -0.000302463 -0.000455046 -0.000475273 -0.000712767 -0.000455046 -0.000608975 -0.000712767 -0.00095577 -0.000475273 -0.000712767 -0.00061389 -0.000925964 -0.000712767 -0.00095577 -0.000925964 -0.00123585 0 0 -0.000305716 -0.000383893 0 0 -0.000383893 -0.000460571 -0.000305716 -0.000383893 -0.000608975 -0.000765912 -0.000383893 -0.000460571 -0.000765912 -0.000926774 0 0 -0.000460571 -0.00053998 0 0 -0.00053998 -0.000617007 -0.000460571 -0.00053998 -0.000926774 -0.00109296 -0.00053998 -0.000617007 -0.00109296 -0.00126681 -0.000608975 -0.000765912 -0.00095577 -0.00119557 -0.000765912 -0.000926774 -0.00119557 -0.00144311 -0.00095577 -0.00119557 -0.00123585 -0.00155896 -0.00119557 -0.00144311 -0.00155896 -0.00188014 -0.000926774 -0.00109296 -0.00144311 -0.00168512 -0.00109296 -0.00126681 -0.00168512 -0.0019381 -0.00144311 -0.00168512 -0.00188014 -0.00222504 -0.00168512 -0.0019381 -0.00222504 -0.00256822 0 -0.000307411 0 -0.000371989 -0.000307411 -0.00061389 -0.000371989 -0.000744889 0 -0.000371989 0 -0.000392162 -0.000371989 -0.000744889 -0.000392162 -0.000789169 -0.00061389 -0.000925964 -0.000744889 -0.00111949 -0.000925964 -0.00123585 -0.00111949 -0.00149635 -0.000744889 -0.00111949 -0.000789169 -0.00118006 -0.00111949 -0.00149635 -0.00118006 -0.00158632 0 -0.000392162 0 -0.000426824 -0.000392162 -0.000789169 -0.000426824 -0.000848828 0 -0.000426824 0 -0.000439019 -0.000426824 -0.000848828 -0.000439019 -0.000879837 -0.000789169 -0.00118006 -0.000848828 -0.00128464 -0.00118006 -0.00158632 -0.00128464 -0.00170485 -0.000848828 -0.00128464 -0.000879837 -0.0013213 -0.00128464 -0.00170485 -0.0013213 -0.00176993 -0.00123585 -0.00155896 -0.00149635 -0.00187403 -0.00155896 -0.00188014 -0.00187403 -0.00225467 -0.00149635 -0.00187403 -0.00158632 -0.00198295 -0.00187403 -0.00225467 -0.00198295 -0.00240755 -0.00188014 -0.00222504 -0.00225467 -0.00263213 -0.00222504 -0.00256822 -0.00263213 -0.00301716 -0.00225467 -0.00263213 -0.00240755 -0.00282348 -0.00263213 -0.00301716 -0.00282348 -0.00328025 -0.00158632 -0.00198295 -0.00170485 -0.00215256 -0.00198295 -0.00240755 -0.00215256 -0.00257133 -0.00170485 -0.00215256 -0.00176993 -0.00221865 -0.00215256 -0.00257133 -0.00221865 -0.00268527 -0.00240755 -0.00282348 -0.00257133 -0.0030328 -0.00282348 -0.00328025 -0.0030328 -0.00345282 -0.00257133 -0.0030328 -0.00268527 -0.0031488 -0.0030328 -0.00345282 -0.0031488 -0.00364954 0 0 -0.000617007 -0.000700045 0 0 -0.000700045 -0.000782595 -0.000617007 -0.000700045 -0.00126681 -0.00144661 -0.000700045 -0.000782595 -0.00144661 -0.00163684 0 0 -0.000782595 -0.000879835 0 0 -0.000879835 -0.000982778 -0.000782595 -0.000879835 -0.00163684 -0.00183069 -0.000879835 -0.000982778 -0.00183069 -0.00204263 -0.00126681 -0.00144661 -0.0019381 -0.00218889 -0.00144661 -0.00163684 -0.00218889 -0.00246321 -0.0019381 -0.00218889 -0.00256822 -0.00294482 -0.00218889 -0.00246321 -0.00294482 -0.00331433 -0.00163684 -0.00183069 -0.00246321 -0.00275494 -0.00183069 -0.00204263 -0.00275494 -0.00309765 -0.00246321 -0.00275494 -0.00331433 -0.00372297 -0.00275494 -0.00309765 -0.00372297 -0.00412207 0 0 -0.000982778 -0.00111299 0 0 -0.00111299 -0.00125568 -0.000982778 -0.00111299 -0.00204263 -0.00226954 -0.00111299 -0.00125568 -0.00226954 -0.00255717 0 0 -0.00125568 -0.00144156 0 0 -0.00144156 -0.00166205 -0.00125568 -0.00144156 -0.00255717 -0.00291878 -0.00144156 -0.00166205 -0.00291878 -0.00343788 -0.00204263 -0.00226954 -0.00309765 -0.00349194 -0.00226954 -0.00255717 -0.00349194 -0.0039671 -0.00309765 -0.00349194 -0.00412207 -0.00459049 -0.00349194 -0.0039671 -0.00459049 -0.00510707 -0.00255717 -0.00291878 -0.0039671 -0.00453852 -0.00291878 -0.00343788 -0.00453852 -0.00525185 -0.0039671 -0.00453852 -0.00510707 -0.00581641 -0.00453852 -0.00525185 -0.00581641 -0.00674861 -0.00256822 -0.00294482 -0.00301716 -0.0033992 -0.00294482 -0.00331433 -0.0033992 -0.00381212 -0.00301716 -0.0033992 -0.00328025 -0.00373197 -0.0033992 -0.00381212 -0.00373197 -0.0042313 -0.00331433 -0.00372297 -0.00381212 -0.0042421 -0.00372297 -0.00412207 -0.0042421 -0.00475955 -0.00381212 -0.0042421 -0.0042313 -0.00473257 -0.0042421 -0.00475955 -0.00473257 -0.00529061 -0.00328025 -0.00373197 -0.00345282 -0.0039404 -0.00373197 -0.0042313 -0.0039404 -0.00438894 -0.00345282 -0.0039404 -0.00364954 -0.00413958 -0.0039404 -0.00438894 -0.00413958 -0.00469913 -0.0042313 -0.00473257 -0.00438894 -0.00495578 -0.00473257 -0.00529061 -0.00495578 -0.00552091 -0.00438894 -0.00495578 -0.00469913 -0.00524158 -0.00495578 -0.00552091 -0.00524158 -0.00591976 -0.00412207 -0.00459049 -0.00475955 -0.00533624 -0.00459049 -0.00510707 -0.00533624 -0.00608165 -0.00475955 -0.00533624 -0.00529061 -0.00589986 -0.00533624 -0.00608165 -0.00589986 -0.00664178 -0.00510707 -0.00581641 -0.00608165 -0.00694725 -0.00581641 -0.00674861 -0.00694725 -0.0081245 -0.00608165 -0.00694725 -0.00664178 -0.00762024 -0.00694725 -0.0081245 -0.00762024 -0.00895389 -0.00529061 -0.00589986 -0.00552091 -0.00629114 -0.00589986 -0.00664178 -0.00629114 -0.0071477 -0.00552091 -0.00629114 -0.00591976 -0.00661448 -0.00629114 -0.0071477 -0.00661448 -0.00760683 -0.00664178 -0.00762024 -0.0071477 -0.00834943 -0.00762024 -0.00895389 -0.00834943 -0.00984908 -0.0071477 -0.00834943 -0.00760683 -0.00877443 -0.00834943 -0.00984908 -0.00877443 -0.0105783 0 -0.000439019 0 -0.000449949 -0.000439019 -0.000879837 -0.000449949 -0.00091008 0 -0.000449949 0 -0.000460274 -0.000449949 -0.00091008 -0.000460274 -0.000909677 -0.000879837 -0.0013213 -0.00091008 -0.00135484 -0.0013213 -0.00176993 -0.00135484 -0.00182947 -0.00091008 -0.00135484 -0.000909677 -0.00138487 -0.00135484 -0.00182947 -0.00138487 -0.00182656 0 -0.000460274 0 -0.000453021 -0.000460274 -0.000909677 -0.000453021 -0.000907297 0 -0.000453021 0 -0.000447609 -0.000453021 -0.000907297 -0.000447609 -0.000908911 -0.000909677 -0.00138487 -0.000907297 -0.00136019 -0.00138487 -0.00182656 -0.00136019 -0.00181952 -0.000907297 -0.00136019 -0.000908911 -0.00134606 -0.00136019 -0.00181952 -0.00134606 -0.0018229 -0.00176993 -0.00221865 -0.00182947 -0.00227512 -0.00221865 -0.00268527 -0.00227512 -0.00276853 -0.00182947 -0.00227512 -0.00182656 -0.00232158 -0.00227512 -0.00276853 -0.00232158 -0.00275849 -0.00268527 -0.0031488 -0.00276853 -0.0032249 -0.0031488 -0.00364954 -0.0032249 -0.00374549 -0.00276853 -0.0032249 -0.00275849 -0.0032799 -0.0032249 -0.00374549 -0.0032799 -0.00371881 -0.00182656 -0.00232158 -0.00181952 -0.00227346 -0.00232158 -0.00275849 -0.00227346 -0.00274768 -0.00181952 -0.00227346 -0.0018229 -0.00225334 -0.00227346 -0.00274768 -0.00225334 -0.00274526 -0.00275849 -0.0032799 -0.00274768 -0.00320836 -0.0032799 -0.00371881 -0.00320836 -0.00371884 -0.00274768 -0.00320836 -0.00274526 -0.00317465 -0.00320836 -0.00371884 -0.00317465 -0.00368285 0 -0.000447609 0 -0.000431197 -0.000447609 -0.000908911 -0.000431197 -0.00085039 0 -0.000431197 0 -0.000408862 -0.000431197 -0.00085039 -0.000408862 -0.000816592 -0.000908911 -0.00134606 -0.00085039 -0.00129455 -0.00134606 -0.0018229 -0.00129455 -0.00170247 -0.00085039 -0.00129455 -0.000816592 -0.00122634 -0.00129455 -0.00170247 -0.00122634 -0.00163446 0 -0.000408862 0 -0.000389947 -0.000408862 -0.000816592 -0.000389947 -0.000786995 0 -0.000389947 0 -0.000373795 -0.000389947 -0.000786995 -0.000373795 -0.000745129 -0.000816592 -0.00122634 -0.000786995 -0.00116789 -0.00122634 -0.00163446 -0.00116789 -0.00157007 -0.000786995 -0.00116789 -0.000745129 -0.00112127 -0.00116789 -0.00157007 -0.00112127 -0.00148975 -0.0018229 -0.00225334 -0.00170247 -0.00216376 -0.00225334 -0.00274526 -0.00216376 -0.00256499 -0.00170247 -0.00216376 -0.00163446 -0.00204322 -0.00216376 -0.00256499 -0.00204322 -0.00245556 -0.00274526 -0.00317465 -0.00256499 -0.0030551 -0.00317465 -0.00368285 -0.0030551 -0.00346508 -0.00256499 -0.0030551 -0.00245556 -0.00286222 -0.0030551 -0.00346508 -0.00286222 -0.00329133 -0.00163446 -0.00204322 -0.00157007 -0.00194303 -0.00204322 -0.00245556 -0.00194303 -0.00235208 -0.00157007 -0.00194303 -0.00148975 -0.00186836 -0.00194303 -0.00235208 -0.00186836 -0.00223394 -0.00245556 -0.00286222 -0.00235208 -0.00272733 -0.00286222 -0.00329133 -0.00272733 -0.00315637 -0.00235208 -0.00272733 -0.00223394 -0.00261707 -0.00272733 -0.00315637 -0.00261707 -0.00298649 -0.00364954 -0.00413958 -0.00374549 -0.00423521 -0.00413958 -0.00469913 -0.00423521 -0.00480843 -0.00374549 -0.00423521 -0.00371881 -0.00428199 -0.00423521 -0.00480843 -0.00428199 -0.00475138 -0.00469913 -0.00524158 -0.00480843 -0.00538823 -0.00524158 -0.00591976 -0.00538823 -0.00608556 -0.00480843 -0.00538823 -0.00475138 -0.00540926 -0.00538823 -0.00608556 -0.00540926 -0.00601016 -0.00371881 -0.00428199 -0.00371884 -0.00420359 -0.00428199 -0.00475138 -0.00420359 -0.00479165 -0.00371884 -0.00420359 -0.00368285 -0.00413194 -0.00420359 -0.00479165 -0.00413194 -0.00468365 -0.00475138 -0.00540926 -0.00479165 -0.0053448 -0.00540926 -0.00601016 -0.0053448 -0.00609988 -0.00479165 -0.0053448 -0.00468365 -0.00523192 -0.0053448 -0.00609988 -0.00523192 -0.00594202 -0.00591976 -0.00661448 -0.00608556 -0.00689103 -0.00661448 -0.00760683 -0.00689103 -0.00790108 -0.00608556 -0.00689103 -0.00601016 -0.0069218 -0.00689103 -0.00790108 -0.0069218 -0.00792257 -0.00760683 -0.00877443 -0.00790108 -0.0092644 -0.00877443 -0.0105783 -0.0092644 -0.0110807 -0.00790108 -0.0092644 -0.00792257 -0.00946615 -0.0092644 -0.0110807 -0.00946615 -0.0114528 -0.00601016 -0.0069218 -0.00609988 -0.00685739 -0.0069218 -0.00792257 -0.00685739 -0.00803462 -0.00609988 -0.00685739 -0.00594202 -0.00680605 -0.00685739 -0.00803462 -0.00680605 -0.00796733 -0.00792257 -0.00946615 -0.00803462 -0.00942501 -0.00946615 -0.0114528 -0.00942501 -0.0117087 -0.00803462 -0.00942501 -0.00796733 -0.00960766 -0.00942501 -0.0117087 -0.00960766 -0.0118576 -0.00368285 -0.00413194 -0.00346508 -0.00400929 -0.00413194 -0.00468365 -0.00400929 -0.0044653 -0.00346508 -0.00400929 -0.00329133 -0.00371121 -0.00400929 -0.0044653 -0.00371121 -0.0042071 -0.00468365 -0.00523192 -0.0044653 -0.00511812 -0.00523192 -0.00594202 -0.00511812 -0.00572003 -0.0044653 -0.00511812 -0.0042071 -0.00472211 -0.00511812 -0.00572003 -0.00472211 -0.00544136 -0.00329133 -0.00371121 -0.00315637 -0.00356431 -0.00371121 -0.0042071 -0.00356431 -0.00405257 -0.00315637 -0.00356431 -0.00298649 -0.0033925 -0.00356431 -0.00405257 -0.0033925 -0.00381064 -0.0042071 -0.00472211 -0.00405257 -0.00456925 -0.00472211 -0.00544136 -0.00456925 -0.00523146 -0.00405257 -0.00456925 -0.00381064 -0.004328 -0.00456925 -0.00523146 -0.004328 -0.00496265 -0.00594202 -0.00680605 -0.00572003 -0.00664749 -0.00680605 -0.00796733 -0.00664749 -0.00771918 -0.00572003 -0.00664749 -0.00544136 -0.00629079 -0.00664749 -0.00771918 -0.00629079 -0.00759758 -0.00796733 -0.00960766 -0.00771918 -0.00944706 -0.00960766 -0.0118576 -0.00944706 -0.0118534 -0.00771918 -0.00944706 -0.00759758 -0.00931108 -0.00944706 -0.0118534 -0.00931108 -0.0119733 -0.00544136 -0.00629079 -0.00523146 -0.00607539 -0.00629079 -0.00759758 -0.00607539 -0.00727849 -0.00523146 -0.00607539 -0.00496265 -0.00586608 -0.00607539 -0.00727849 -0.00586608 -0.00715687 -0.00759758 -0.00931108 -0.00727849 -0.00908091 -0.00931108 -0.0119733 -0.00908091 -0.0117978 -0.00727849 -0.00908091 -0.00715687 -0.00909565 -0.00908091 -0.0117978 -0.00909565 -0.0120031 0 0 -0.00166205 -0.00198111 0 0 -0.00198111 -0.00242408 -0.00166205 -0.00198111 -0.00343788 -0.00412549 -0.00198111 -0.00242408 -0.00412549 -0.00508629 0 0 -0.00242408 -0.00308941 0 0 -0.00308941 -0.00400693 -0.00242408 -0.00308941 -0.00508629 -0.00634313 -0.00308941 -0.00400693 -0.00634313 -0.00808735 -0.00343788 -0.00412549 -0.00525185 -0.00620959 -0.00412549 -0.00508629 -0.00620959 -0.00753861 -0.00525185 -0.00620959 -0.00674861 -0.00809072 -0.00620959 -0.00753861 -0.00809072 -0.00990876 -0.00508629 -0.00634313 -0.00753861 -0.00946782 -0.00634313 -0.00808735 -0.00946782 -0.0121266 -0.00753861 -0.00946782 -0.00990876 -0.0124218 -0.00946782 -0.0121266 -0.0124218 -0.0158351 0 0 -0.00400693 -0.00524535 0 0 -0.00524535 -0.00682164 -0.00400693 -0.00524535 -0.00808735 -0.0104336 -0.00524535 -0.00682164 -0.0104336 -0.013613 0 0 -0.00682164 -0.0087904 0 0 -0.0087904 -0.0111894 -0.00682164 -0.0087904 -0.013613 -0.0176246 -0.0087904 -0.0111894 -0.0176246 -0.0224069 -0.00808735 -0.0104336 -0.0121266 -0.0157411 -0.0104336 -0.013613 -0.0157411 -0.0203407 -0.0121266 -0.0157411 -0.0158351 -0.0204671 -0.0157411 -0.0203407 -0.0204671 -0.02664 -0.013613 -0.0176246 -0.0203407 -0.0261602 -0.0176246 -0.0224069 -0.0261602 -0.0331142 -0.0203407 -0.0261602 -0.02664 -0.03441 -0.0261602 -0.0331142 -0.03441 -0.0437549 -0.00674861 -0.00809072 -0.0081245 -0.00962235 -0.00809072 -0.00990876 -0.00962235 -0.011821 -0.0081245 -0.00962235 -0.00895389 -0.010888 -0.00962235 -0.011821 -0.010888 -0.0135369 -0.00990876 -0.0124218 -0.011821 -0.0148554 -0.0124218 -0.0158351 -0.0148554 -0.0192264 -0.011821 -0.0148554 -0.0135369 -0.0173227 -0.0148554 -0.0192264 -0.0173227 -0.0223935 -0.00895389 -0.010888 -0.00984908 -0.0120112 -0.010888 -0.0135369 -0.0120112 -0.0150055 -0.00984908 -0.0120112 -0.0105783 -0.0129278 -0.0120112 -0.0150055 -0.0129278 -0.0164845 -0.0135369 -0.0173227 -0.0150055 -0.0193148 -0.0173227 -0.0223935 -0.0193148 -0.025352 -0.0150055 -0.0193148 -0.0164845 -0.0212622 -0.0193148 -0.025352 -0.0212622 -0.0281157 -0.0158351 -0.0204671 -0.0192264 -0.0250558 -0.0204671 -0.02664 -0.0250558 -0.0327473 -0.0192264 -0.0250558 -0.0223935 -0.0294228 -0.0250558 -0.0327473 -0.0294228 -0.0385051 -0.02664 -0.03441 -0.0327473 -0.0423424 -0.03441 -0.0437549 -0.0423424 -0.0538947 -0.0327473 -0.0423424 -0.0385051 -0.0501747 -0.0423424 -0.0538947 -0.0501747 -0.0639212 -0.0223935 -0.0294228 -0.025352 -0.033495 -0.0294228 -0.0385051 -0.033495 -0.0442406 -0.025352 -0.033495 -0.0281157 -0.0372246 -0.033495 -0.0442406 -0.0372246 -0.0493591 -0.0385051 -0.0501747 -0.0442406 -0.0575269 -0.0501747 -0.0639212 -0.0575269 -0.0736009 -0.0442406 -0.0575269 -0.0493591 -0.0645686 -0.0575269 -0.0736009 -0.0645686 -0.0827213 0 0 -0.0111894 -0.0139242 0 0 -0.0139242 -0.0168101 -0.0111894 -0.0139242 -0.0224069 -0.0277067 -0.0139242 -0.0168101 -0.0277067 -0.0331726 0 0 -0.0168101 -0.0193939 0 0 -0.0193939 -0.0213552 -0.0168101 -0.0193939 -0.0331726 -0.038305 -0.0193939 -0.0213552 -0.038305 -0.0421189 -0.0224069 -0.0277067 -0.0331142 -0.0410965 -0.0277067 -0.0331726 -0.0410965 -0.0493031 -0.0331142 -0.0410965 -0.0437549 -0.0540833 -0.0410965 -0.0493031 -0.0540833 -0.0649028 -0.0331726 -0.038305 -0.0493031 -0.0567806 -0.038305 -0.0421189 -0.0567806 -0.0622571 -0.0493031 -0.0567806 -0.0649028 -0.0747704 -0.0567806 -0.0622571 -0.0747704 -0.0822122 0 0 -0.0213552 -0.0221265 0 0 -0.0221265 -0.0213821 -0.0213552 -0.0221265 -0.0421189 -0.0437063 -0.0221265 -0.0213821 -0.0437063 -0.0419764 0 0 -0.0213821 -0.0186441 0 0 -0.0186441 -0.014014 -0.0213821 -0.0186441 -0.0419764 -0.0366564 -0.0186441 -0.014014 -0.0366564 -0.0273904 -0.0421189 -0.0437063 -0.0622571 -0.0644208 -0.0437063 -0.0419764 -0.0644208 -0.0620002 -0.0622571 -0.0644208 -0.0822122 -0.0849086 -0.0644208 -0.0620002 -0.0849086 -0.0813566 -0.0419764 -0.0366564 -0.0620002 -0.0537781 -0.0366564 -0.0273904 -0.0537781 -0.0399953 -0.0620002 -0.0537781 -0.0813566 -0.0704581 -0.0537781 -0.0399953 -0.0704581 -0.0520626 -0.0437549 -0.0540833 -0.0538947 -0.0669517 -0.0540833 -0.0649028 -0.0669517 -0.0803474 -0.0538947 -0.0669517 -0.0639212 -0.0794534 -0.0669517 -0.0803474 -0.0794534 -0.0953088 -0.0649028 -0.0747704 -0.0803474 -0.0926207 -0.0747704 -0.0822122 -0.0926207 -0.101414 -0.0803474 -0.0926207 -0.0953088 -0.109824 -0.0926207 -0.101414 -0.109824 -0.120447 -0.0639212 -0.0794534 -0.0736009 -0.0913374 -0.0794534 -0.0953088 -0.0913374 -0.109884 -0.0736009 -0.0913374 -0.0827213 -0.103058 -0.0913374 -0.109884 -0.103058 -0.123592 -0.0953088 -0.109824 -0.109884 -0.126409 -0.109824 -0.120447 -0.126409 -0.138543 -0.109884 -0.126409 -0.123592 -0.142308 -0.126409 -0.138543 -0.142308 -0.155343 -0.0822122 -0.0849086 -0.101414 -0.104915 -0.0849086 -0.0813566 -0.104915 -0.10042 -0.101414 -0.104915 -0.120447 -0.124173 -0.104915 -0.10042 -0.124173 -0.118801 -0.0813566 -0.0704581 -0.10042 -0.086891 -0.0704581 -0.0520626 -0.086891 -0.0637576 -0.10042 -0.086891 -0.118801 -0.102138 -0.086891 -0.0637576 -0.102138 -0.0748408 -0.120447 -0.124173 -0.138543 -0.14258 -0.124173 -0.118801 -0.14258 -0.135903 -0.138543 -0.14258 -0.155343 -0.160005 -0.14258 -0.135903 -0.160005 -0.152114 -0.118801 -0.102138 -0.135903 -0.116746 -0.102138 -0.0748408 -0.116746 -0.084674 -0.135903 -0.116746 -0.152114 -0.130183 -0.116746 -0.084674 -0.130183 -0.0936801 -0.0105783 -0.0129278 -0.0110807 -0.013788 -0.0129278 -0.0164845 -0.013788 -0.0175138 -0.0110807 -0.013788 -0.0114528 -0.0144309 -0.013788 -0.0175138 -0.0144309 -0.0185977 -0.0164845 -0.0212622 -0.0175138 -0.0230637 -0.0212622 -0.0281157 -0.0230637 -0.0305457 -0.0175138 -0.0230637 -0.0185977 -0.0245893 -0.0230637 -0.0305457 -0.0245893 -0.0330101 -0.0114528 -0.0144309 -0.0117087 -0.0147488 -0.0144309 -0.0185977 -0.0147488 -0.0194873 -0.0117087 -0.0147488 -0.0118576 -0.0152584 -0.0147488 -0.0194873 -0.0152584 -0.0200315 -0.0185977 -0.0245893 -0.0194873 -0.0259295 -0.0245893 -0.0330101 -0.0259295 -0.0351968 -0.0194873 -0.0259295 -0.0200315 -0.0272175 -0.0259295 -0.0351968 -0.0272175 -0.0370761 -0.0281157 -0.0372246 -0.0305457 -0.0410274 -0.0372246 -0.0493591 -0.0410274 -0.0543987 -0.0305457 -0.0410274 -0.0330101 -0.0443381 -0.0410274 -0.0543987 -0.0443381 -0.059362 -0.0493591 -0.0645686 -0.0543987 -0.0714903 -0.0645686 -0.0827213 -0.0714903 -0.0914635 -0.0543987 -0.0714903 -0.059362 -0.0778661 -0.0714903 -0.0914635 -0.0778661 -0.100204 -0.0330101 -0.0443381 -0.0351968 -0.0475338 -0.0443381 -0.059362 -0.0475338 -0.0638828 -0.0351968 -0.0475338 -0.0370761 -0.0508269 -0.0475338 -0.0638828 -0.0508269 -0.0683711 -0.059362 -0.0778661 -0.0638828 -0.0843131 -0.0778661 -0.100204 -0.0843131 -0.10842 -0.0638828 -0.0843131 -0.0683711 -0.0904499 -0.0843131 -0.10842 -0.0904499 -0.116198 -0.0118576 -0.0152584 -0.0118534 -0.015574 -0.0152584 -0.0200315 -0.015574 -0.0209258 -0.0118534 -0.015574 -0.0119733 -0.0157122 -0.015574 -0.0209258 -0.0157122 -0.0214098 -0.0200315 -0.0272175 -0.0209258 -0.0285872 -0.0272175 -0.0370761 -0.0285872 -0.0392779 -0.0209258 -0.0285872 -0.0214098 -0.0295412 -0.0285872 -0.0392779 -0.0295412 -0.0411801 -0.0119733 -0.0157122 -0.0117978 -0.0159633 -0.0157122 -0.0214098 -0.0159633 -0.0220657 -0.0117978 -0.0159633 -0.0120031 -0.0163506 -0.0159633 -0.0220657 -0.0163506 -0.0228022 -0.0214098 -0.0295412 -0.0220657 -0.0309282 -0.0295412 -0.0411801 -0.0309282 -0.0432246 -0.0220657 -0.0309282 -0.0228022 -0.0321163 -0.0309282 -0.0432246 -0.0321163 -0.0452333 -0.0370761 -0.0508269 -0.0392779 -0.0536569 -0.0508269 -0.0683711 -0.0536569 -0.0726699 -0.0392779 -0.0536569 -0.0411801 -0.0568984 -0.0536569 -0.0726699 -0.0568984 -0.0773139 -0.0683711 -0.0904499 -0.0726699 -0.096239 -0.0904499 -0.116198 -0.096239 -0.12424 -0.0726699 -0.096239 -0.0773139 -0.102527 -0.096239 -0.12424 -0.102527 -0.131902 -0.0411801 -0.0568984 -0.0432246 -0.0599106 -0.0568984 -0.0773139 -0.0599106 -0.0815488 -0.0432246 -0.0599106 -0.0452333 -0.0629485 -0.0599106 -0.0815488 -0.0629485 -0.0859132 -0.0773139 -0.102527 -0.0815488 -0.108348 -0.102527 -0.131902 -0.108348 -0.139615 -0.0815488 -0.108348 -0.0859132 -0.114224 -0.108348 -0.139615 -0.114224 -0.14706 -0.0827213 -0.103058 -0.0914635 -0.113933 -0.103058 -0.123592 -0.113933 -0.136746 -0.0914635 -0.113933 -0.100204 -0.12461 