# vtk DataFile Version 3.0
#This file was generated by the deal.II library on 2021/4/23 at 0:45:49
ASCII
DATASET UNSTRUCTURED_GRID

FIELD FieldData 2
CYCLE 1 1 int
239
TIME 1 1 double
0.478
POINTS 7260 double
-1 -1 0
-0.75 -1 0
-1 -0.75 0
-0.75 -0.75 0
-0.75 -1 0
-0.5 -1 0
-0.75 -0.75 0
-0.5 -0.75 0
-1 -0.75 0
-0.75 -0.75 0
-1 -0.5 0
-0.75 -0.5 0
-0.75 -0.75 0
-0.5 -0.75 0
-0.75 -0.5 0
-0.5 -0.5 0
-1 -0.5 0
-0.75 -0.5 0
-1 -0.25 0
-0.75 -0.25 0
-0.625 -0.25 0
-0.5 -0.25 0
-0.625 -0.125 0
-0.5 -0.125 0
0 -1 0
0.125 -1 0
0 -0.875 0
0.125 -0.875 0
0.125 -1 0
0.25 -1 0
0.125 -0.875 0
0.25 -0.875 0
-0.5 -0.75 0
-0.375 -0.75 0
-0.5 -0.625 0
-0.375 -0.625 0
-0.5 -0.625 0
-0.375 -0.625 0
-0.5 -0.5 0
-0.375 -0.5 0
-0.5 -0.25 0
-0.375 -0.25 0
-0.5 -0.125 0
-0.375 -0.125 0
-0.375 -0.25 0
-0.25 -0.25 0
-0.375 -0.125 0
-0.25 -0.125 0
-0.625 0 0
-0.5 0 0
-0.625 0.125 0
-0.5 0.125 0
-0.625 0.125 0
-0.5 0.125 0
-0.625 0.25 0
-0.5 0.25 0
-0.5 -1 0
-0.375 -1 0
-0.5 -0.875 0
-0.375 -0.875 0
-0.375 -1 0
-0.25 -1 0
-0.375 -0.875 0
-0.25 -0.875 0
-0.5 -0.875 0
-0.375 -0.875 0
-0.5 -0.75 0
-0.375 -0.75 0
-0.375 -0.875 0
-0.25 -0.875 0
-0.375 -0.75 0
-0.25 -0.75 0
-0.5 -0.5 0
-0.375 -0.5 0
-0.5 -0.375 0
-0.375 -0.375 0
-0.5 -0.375 0
-0.375 -0.375 0
-0.5 -0.25 0
-0.375 -0.25 0
-1 0 0
-0.875 0 0
-1 0.125 0
-0.875 0.125 0
-1 0.125 0
-0.875 0.125 0
-1 0.25 0
-0.875 0.25 0
-1 0.25 0
-0.875 0.25 0
-1 0.375 0
-0.875 0.375 0
-0.875 0.25 0
-0.75 0.25 0
-0.875 0.375 0
-0.75 0.375 0
-1 0.375 0
-0.875 0.375 0
-1 0.5 0
-0.875 0.5 0
-0.875 0.375 0
-0.75 0.375 0
-0.875 0.5 0
-0.75 0.5 0
-0.625 0.375 0
-0.5 0.375 0
-0.625 0.5 0
-0.5 0.5 0
-1 0.5 0
-0.875 0.5 0
-1 0.625 0
-0.875 0.625 0
-0.875 0.5 0
-0.75 0.5 0
-0.875 0.625 0
-0.75 0.625 0
-1 0.625 0
-0.875 0.625 0
-1 0.75 0
-0.875 0.75 0
-0.75 -0.5 0
-0.625 -0.5 0
-0.75 -0.375 0
-0.625 -0.375 0
-0.625 -0.5 0
-0.5 -0.5 0
-0.625 -0.375 0
-0.5 -0.375 0
-0.75 -0.375 0
-0.625 -0.375 0
-0.75 -0.25 0
-0.625 -0.25 0
-0.625 -0.375 0
-0.5 -0.375 0
-0.625 -0.25 0
-0.5 -0.25 0
-0.125 0.25 0
0 0.25 0
-0.125 0.375 0
0 0.375 0
-0.25 0.375 0
-0.125 0.375 0
-0.25 0.5 0
-0.125 0.5 0
-0.125 0.375 0
0 0.375 0
-0.125 0.5 0
0 0.5 0
-0.25 -1 0
-0.125 -1 0
-0.25 -0.875 0
-0.125 -0.875 0
-0.125 -1 0
0 -1 0
-0.125 -0.875 0
0 -0.875 0
-0.25 -0.875 0
-0.125 -0.875 0
-0.25 -0.75 0
-0.125 -0.75 0
-0.125 -0.875 0
0 -0.875 0
-0.125 -0.75 0
0 -0.75 0
-1 -0.25 0
-0.875 -0.25 0
-1 -0.125 0
-0.875 -0.125 0
-0.875 -0.25 0
-0.75 -0.25 0
-0.875 -0.125 0
-0.75 -0.125 0
-1 -0.125 0
-0.875 -0.125 0
-1 0 0
-0.875 0 0
-0.875 -0.125 0
-0.75 -0.125 0
-0.875 0 0
-0.75 0 0
-1 0.75 0
-0.875 0.75 0
-1 0.875 0
-0.875 0.875 0
-0.875 0.75 0
-0.75 0.75 0
-0.875 0.875 0
-0.75 0.875 0
-1 0.875 0
-0.875 0.875 0
-1 1 0
-0.875 1 0
-0.875 0.875 0
-0.75 0.875 0
-0.875 1 0
-0.75 1 0
-0.25 0.75 0
-0.125 0.75 0
-0.25 0.875 0
-0.125 0.875 0
-0.125 0.75 0
0 0.75 0
-0.125 0.875 0
0 0.875 0
-0.25 0.875 0
-0.125 0.875 0
-0.25 1 0
-0.125 1 0
-0.125 0.875 0
0 0.875 0
-0.125 1 0
0 1 0
-0.5 0.375 0
-0.375 0.375 0
-0.5 0.5 0
-0.375 0.5 0
-0.375 0.375 0
-0.25 0.375 0
-0.375 0.5 0
-0.25 0.5 0
-0.625 0.5 0
-0.5 0.5 0
-0.625 0.625 0
-0.5 0.625 0
-0.625 0.625 0
-0.5 0.625 0
-0.625 0.75 0
-0.5 0.75 0
-0.625 0.75 0
-0.5 0.75 0
-0.625 0.875 0
-0.5 0.875 0
-0.75 0.875 0
-0.625 0.875 0
-0.75 1 0
-0.625 1 0
-0.625 0.875 0
-0.5 0.875 0
-0.625 1 0
-0.5 1 0
-0.5 0.5 0
-0.375 0.5 0
-0.5 0.625 0
-0.375 0.625 0
-0.375 0.5 0
-0.25 0.5 0
-0.375 0.625 0
-0.25 0.625 0
-0.5 0.625 0
-0.375 0.625 0
-0.5 0.75 0
-0.375 0.75 0
-0.375 0.625 0
-0.25 0.625 0
-0.375 0.75 0
-0.25 0.75 0
-0.25 0.5 0
-0.125 0.5 0
-0.25 0.625 0
-0.125 0.625 0
-0.125 0.5 0
0 0.5 0
-0.125 0.625 0
0 0.625 0
-0.125 0.625 0
0 0.625 0
-0.125 0.75 0
0 0.75 0
-0.5 0.75 0
-0.375 0.75 0
-0.5 0.875 0
-0.375 0.875 0
-0.5 0.875 0
-0.375 0.875 0
-0.5 1 0
-0.375 1 0
-0.375 0.875 0
-0.25 0.875 0
-0.375 1 0
-0.25 1 0
0.125 -0.5 0
0.1875 -0.5 0
0.125 -0.4375 0
0.1875 -0.4375 0
0.1875 -0.4375 0
0.25 -0.4375 0
0.1875 -0.375 0
0.25 -0.375 0
0.1875 -0.75 0
0.25 -0.75 0
0.1875 -0.6875 0
0.25 -0.6875 0
0.5 -0.875 0
0.5625 -0.875 0
0.5 -0.8125 0
0.5625 -0.8125 0
0.5625 -0.875 0
0.625 -0.875 0
0.5625 -0.8125 0
0.625 -0.8125 0
0.8125 -0.875 0
0.875 -0.875 0
0.8125 -0.8125 0
0.875 -0.8125 0
0 -0.625 0
0.0625 -0.625 0
0 -0.5625 0
0.0625 -0.5625 0
0.1875 -0.625 0
0.25 -0.625 0
0.1875 -0.5625 0
0.25 -0.5625 0
0.125 -0.5625 0
0.1875 -0.5625 0
0.125 -0.5 0
0.1875 -0.5 0
0.1875 -0.5625 0
0.25 -0.5625 0
0.1875 -0.5 0
0.25 -0.5 0
-0.0625 -0.5 0
0 -0.5 0
-0.0625 -0.4375 0
0 -0.4375 0
-0.25 -0.625 0
-0.1875 -0.625 0
-0.25 -0.5625 0
-0.1875 -0.5625 0
-0.1875 -0.625 0
-0.125 -0.625 0
-0.1875 -0.5625 0
-0.125 -0.5625 0
-0.25 -0.5625 0
-0.1875 -0.5625 0
-0.25 -0.5 0
-0.1875 -0.5 0
-0.1875 -0.5625 0
-0.125 -0.5625 0
-0.1875 -0.5 0
-0.125 -0.5 0
-0.125 -0.1875 0
-0.0625 -0.1875 0
-0.125 -0.125 0
-0.0625 -0.125 0
0.375 -0.875 0
0.4375 -0.875 0
0.375 -0.8125 0
0.4375 -0.8125 0
0.375 -0.8125 0
0.4375 -0.8125 0
0.375 -0.75 0
0.4375 -0.75 0
0.4375 -0.8125 0
0.5 -0.8125 0
0.4375 -0.75 0
0.5 -0.75 0
0.25 -0.75 0
0.3125 -0.75 0
0.25 -0.6875 0
0.3125 -0.6875 0
0.3125 -0.75 0
0.375 -0.75 0
0.3125 -0.6875 0
0.375 -0.6875 0
0.25 -0.6875 0
0.3125 -0.6875 0
0.25 -0.625 0
0.3125 -0.625 0
0.3125 -0.6875 0
0.375 -0.6875 0
0.3125 -0.625 0
0.375 -0.625 0
0.5 -1 0
0.5625 -1 0
0.5 -0.9375 0
0.5625 -0.9375 0
0.5625 -1 0
0.625 -1 0
0.5625 -0.9375 0
0.625 -0.9375 0
0.5 -0.9375 0
0.5625 -0.9375 0
0.5 -0.875 0
0.5625 -0.875 0
-0.125 -0.125 0
-0.0625 -0.125 0
-0.125 -0.0625 0
-0.0625 -0.0625 0
-0.125 -0.0625 0
-0.0625 -0.0625 0
-0.125 0 0
-0.0625 0 0
0.75 -1 0
0.8125 -1 0
0.75 -0.9375 0
0.8125 -0.9375 0
0.8125 -1 0
0.875 -1 0
0.8125 -0.9375 0
0.875 -0.9375 0
0.9375 -0.875 0
1 -0.875 0
0.9375 -0.8125 0
1 -0.8125 0
0.875 -0.8125 0
0.9375 -0.8125 0
0.875 -0.75 0
0.9375 -0.75 0
0.9375 -0.8125 0
1 -0.8125 0
0.9375 -0.75 0
1 -0.75 0
-0.25 -0.375 0
-0.1875 -0.375 0
-0.25 -0.3125 0
-0.1875 -0.3125 0
-0.1875 -0.375 0
-0.125 -0.375 0
-0.1875 -0.3125 0
-0.125 -0.3125 0
-0.25 -0.3125 0
-0.1875 -0.3125 0
-0.25 -0.25 0
-0.1875 -0.25 0
-0.1875 -0.3125 0
-0.125 -0.3125 0
-0.1875 -0.25 0
-0.125 -0.25 0
-0.125 0.0625 0
-0.0625 0.0625 0
-0.125 0.125 0
-0.0625 0.125 0
-0.0625 0.0625 0
0 0.0625 0
-0.0625 0.125 0
0 0.125 0
0.125 -0.125 0
0.1875 -0.125 0
0.125 -0.0625 0
0.1875 -0.0625 0
0.1875 -0.125 0
0.25 -0.125 0
0.1875 -0.0625 0
0.25 -0.0625 0
0.125 -0.0625 0
0.1875 -0.0625 0
0.125 0 0
0.1875 0 0
0.1875 -0.0625 0
0.25 -0.0625 0
0.1875 0 0
0.25 0 0
0 -0.375 0
0.0625 -0.375 0
0 -0.3125 0
0.0625 -0.3125 0
0.0625 -0.375 0
0.125 -0.375 0
0.0625 -0.3125 0
0.125 -0.3125 0
0 -0.3125 0
0.0625 -0.3125 0
0 -0.25 0
0.0625 -0.25 0
0.0625 -0.3125 0
0.125 -0.3125 0
0.0625 -0.25 0
0.125 -0.25 0
-0.25 -0.75 0
-0.1875 -0.75 0
-0.25 -0.6875 0
-0.1875 -0.6875 0
-0.1875 -0.75 0
-0.125 -0.75 0
-0.1875 -0.6875 0
-0.125 -0.6875 0
-0.25 -0.6875 0
-0.1875 -0.6875 0
-0.25 -0.625 0
-0.1875 -0.625 0
-0.1875 -0.6875 0
-0.125 -0.6875 0
-0.1875 -0.625 0
-0.125 -0.625 0
-0.125 -0.75 0
-0.0625 -0.75 0
-0.125 -0.6875 0
-0.0625 -0.6875 0
-0.0625 -0.75 0
0 -0.75 0
-0.0625 -0.6875 0
0 -0.6875 0
-0.125 -0.6875 0
-0.0625 -0.6875 0
-0.125 -0.625 0
-0.0625 -0.625 0
-0.0625 -0.6875 0
0 -0.6875 0
-0.0625 -0.625 0
0 -0.625 0
-0.25 -0.25 0
-0.1875 -0.25 0
-0.25 -0.1875 0
-0.1875 -0.1875 0
-0.1875 -0.25 0
-0.125 -0.25 0
-0.1875 -0.1875 0
-0.125 -0.1875 0
-0.25 -0.1875 0
-0.1875 -0.1875 0
-0.25 -0.125 0
-0.1875 -0.125 0
-0.1875 -0.1875 0
-0.125 -0.1875 0
-0.1875 -0.125 0
-0.125 -0.125 0
-0.75 -0.25 0
-0.6875 -0.25 0
-0.75 -0.1875 0
-0.6875 -0.1875 0
-0.6875 -0.25 0
-0.625 -0.25 0
-0.6875 -0.1875 0
-0.625 -0.1875 0
-0.75 -0.1875 0
-0.6875 -0.1875 0
-0.75 -0.125 0
-0.6875 -0.125 0
-0.6875 -0.1875 0
-0.625 -0.1875 0
-0.6875 -0.125 0
-0.625 -0.125 0
-0.75 -0.125 0
-0.6875 -0.125 0
-0.75 -0.0625 0
-0.6875 -0.0625 0
-0.6875 -0.125 0
-0.625 -0.125 0
-0.6875 -0.0625 0
-0.625 -0.0625 0
-0.75 -0.0625 0
-0.6875 -0.0625 0
-0.75 0 0
-0.6875 0 0
-0.6875 -0.0625 0
-0.625 -0.0625 0
-0.6875 0 0
-0.625 0 0
-0.625 -0.125 0
-0.5625 -0.125 0
-0.625 -0.0625 0
-0.5625 -0.0625 0
-0.5625 -0.125 0
-0.5 -0.125 0
-0.5625 -0.0625 0
-0.5 -0.0625 0
-0.625 -0.0625 0
-0.5625 -0.0625 0
-0.625 0 0
-0.5625 0 0
-0.5625 -0.0625 0
-0.5 -0.0625 0
-0.5625 0 0
-0.5 0 0
-0.25 0 0
-0.1875 0 0
-0.25 0.0625 0
-0.1875 0.0625 0
-0.1875 0 0
-0.125 0 0
-0.1875 0.0625 0
-0.125 0.0625 0
-0.25 0.0625 0
-0.1875 0.0625 0
-0.25 0.125 0
-0.1875 0.125 0
-0.1875 0.0625 0
-0.125 0.0625 0
-0.1875 0.125 0
-0.125 0.125 0
-0.25 -0.5 0
-0.1875 -0.5 0
-0.25 -0.4375 0
-0.1875 -0.4375 0
-0.1875 -0.5 0
-0.125 -0.5 0
-0.1875 -0.4375 0
-0.125 -0.4375 0
-0.25 -0.4375 0
-0.1875 -0.4375 0
-0.25 -0.375 0
-0.1875 -0.375 0
-0.1875 -0.4375 0
-0.125 -0.4375 0
-0.1875 -0.375 0
-0.125 -0.375 0
0 -0.875 0
0.0625 -0.875 0
0 -0.8125 0
0.0625 -0.8125 0
0.0625 -0.875 0
0.125 -0.875 0
0.0625 -0.8125 0
0.125 -0.8125 0
0 -0.8125 0
0.0625 -0.8125 0
0 -0.75 0
0.0625 -0.75 0
0.0625 -0.8125 0
0.125 -0.8125 0
0.0625 -0.75 0
0.125 -0.75 0
0.125 -0.875 0
0.1875 -0.875 0
0.125 -0.8125 0
0.1875 -0.8125 0
0.1875 -0.875 0
0.25 -0.875 0
0.1875 -0.8125 0
0.25 -0.8125 0
0.125 -0.8125 0
0.1875 -0.8125 0
0.125 -0.75 0
0.1875 -0.75 0
0.1875 -0.8125 0
0.25 -0.8125 0
0.1875 -0.75 0
0.25 -0.75 0
-0.375 -0.75 0
-0.3125 -0.75 0
-0.375 -0.6875 0
-0.3125 -0.6875 0
-0.3125 -0.75 0
-0.25 -0.75 0
-0.3125 -0.6875 0
-0.25 -0.6875 0
-0.375 -0.6875 0
-0.3125 -0.6875 0
-0.375 -0.625 0
-0.3125 -0.625 0
-0.3125 -0.6875 0
-0.25 -0.6875 0
-0.3125 -0.625 0
-0.25 -0.625 0
0.375 -1 0
0.4375 -1 0
0.375 -0.9375 0
0.4375 -0.9375 0
0.4375 -1 0
0.5 -1 0
0.4375 -0.9375 0
0.5 -0.9375 0
0.375 -0.9375 0
0.4375 -0.9375 0
0.375 -0.875 0
0.4375 -0.875 0
0.4375 -0.9375 0
0.5 -0.9375 0
0.4375 -0.875 0
0.5 -0.875 0
-0.375 -0.625 0
-0.3125 -0.625 0
-0.375 -0.5625 0
-0.3125 -0.5625 0
-0.3125 -0.625 0
-0.25 -0.625 0
-0.3125 -0.5625 0
-0.25 -0.5625 0
-0.375 -0.5625 0
-0.3125 -0.5625 0
-0.375 -0.5 0
-0.3125 -0.5 0
-0.3125 -0.5625 0
-0.25 -0.5625 0
-0.3125 -0.5 0
-0.25 -0.5 0
0.625 -1 0
0.6875 -1 0
[...]
POINT_DATA 7260
SCALARS U double 1
LOOKUP_TABLE default
0 0 0 9.65465e-05 0 0 9.65465e-05 0.000183504 0 9.65465e-05 0 0.000210792 9.65465e-05 0.000183504 0.000210792 0.000376414 0 0.000210792 0 0.000354395 0.000486237 0.000575367 0.000589225 0.000680553 0 0 0.000363462 0.000562829 0 0 0.000562829 0.00083903 0.000183504 0.000236536 0.000279959 0.000353153 0.000279959 0.000353153 0.000376414 0.000460079 0.000575367 0.000635375 0.000680553 0.00070852 0.000635375 0.000704612 0.00070852 0.000697296 0.000694967 0.00078247 0.000790487 0.000876609 0.000790487 0.000876609 0.000860499 0.000945737 0 0 9.17518e-05 0.00011845 0 0 0.00011845 0.000161869 9.17518e-05 0.00011845 0.000183504 0.000236536 0.00011845 0.000161869 0.000236536 0.000318725 0.000376414 0.000460079 0.000473216 0.000555329 0.000473216 0.000555329 0.000575367 0.000635375 0 0.00027532 0 0.000316467 0 0.000316467 0 0.000349559 0 0.000349559 0 0.000360282 0.000349559 0.000650542 0.000360282 0.000670027 0 0.000360282 0 0.00034358 0.000360282 0.000670027 0.00034358 0.000638844 0.000883968 0.000970145 0.000842343 0.000921183 0 0.00034358 0 0.000295298 0.00034358 0.000638844 0.000295298 0.000548675 0 0.000295298 0 0.000215902 0.000210792 0.000293603 0.000282593 0.00038757 0.000293603 0.000376414 0.00038757 0.000473216 0.000282593 0.00038757 0.000354395 0.000486237 0.00038757 0.000473216 0.000486237 0.000575367 0.000384557 0 0.000383418 0 0.000703262 0.000383418 0.000663016 0.00036064 0.000383418 0 0.00036064 0 0 0 0.000161869 0.000237234 0 0 0.000237234 0.000363462 0.000161869 0.000237234 0.000318725 0.000465846 0.000237234 0.000363462 0.000465846 0.000725498 0 0.000177197 0 0.000228667 0.000177197 0.000354395 0.000228667 0.000432815 0 0.000228667 0 0.00027532 0.000228667 0.000432815 0.00027532 0.00051775 0 0.000215902 0 0.00011328 0.000215902 0.000402174 0.00011328 0.000213396 0 0.00011328 0 0 0.00011328 0.000213396 0 0 0.000415822 0.00022444 0.000219467 0.000117788 0.00022444 0 0.000117788 0 0.000219467 0.000117788 0 0 0.000117788 0 0 0 0.000970145 0.000908075 0.000921183 0.000859527 0.000908075 0.000703262 0.000859527 0.000663016 0.000842343 0.000921183 0.000724875 0.000791931 0.000724875 0.000791931 0.000533172 0.000582979 0.000533172 0.000582979 0.000283202 0.000309526 0.000213396 0.000283202 0 0 0.000283202 0.000309526 0 0 0.000921183 0.000859527 0.000791931 0.000737656 0.000859527 0.000663016 0.000737656 0.000567679 0.000791931 0.000737656 0.000582979 0.00054229 0.000737656 0.000567679 0.00054229 0.000415822 0.000663016 0.00036064 0.000567679 0.000307938 0.00036064 0 0.000307938 0 0.000307938 0 0.00022444 0 0.000582979 0.00054229 0.000309526 0.000287523 0.000309526 0.000287523 0 0 0.000287523 0.000219467 0 0 0.00207203 0.00258227 0.00216634 0.00270349 0.00270349 0.00330868 0.00270611 0.00331601 0.0014071 0.00170458 0.0017537 0.00213384 0.00138063 0.00143843 0.00209886 0.00218761 0.00143843 0.00143509 0.00218761 0.00218253 0.000984028 0.000694673 0.00149981 0.00105933 0.00105984 0.00133597 0.001198 0.00151045 0.00208133 0.00253526 0.00236469 0.00288683 0.00190013 0.00236469 0.00207203 0.00258227 0.00236469 0.00288683 0.00258227 0.00315549 0.00103564 0.00130129 0.00108753 0.00136223 0.000468749 0.000560413 0.000533704 0.000632524 0.000560413 0.000679933 0.000632524 0.000769913 0.000533704 0.000632524 0.000590087 0.000695731 0.000632524 0.000769913 0.000695731 0.000837674 0.000783919 0.000870331 0.000687836 0.000708659 0.00114269 0.00127805 0.00173398 0.0019384 0.00173398 0.0019384 0.0023328 0.00261488 0.0019384 0.00209886 0.00261488 0.00283227 0.00170458 0.00202193 0.00213384 0.00253343 0.00202193 0.0023328 0.00253343 0.00293053 0.00213384 0.00253343 0.00253526 0.00301787 0.00253343 0.00293053 0.00301787 0.00349677 0 0 0.000684161 0.000711721 0 0 0.000711721 0.000709927 0.000684161 0.000711721 0.00138063 0.00143843 0.000687836 0.000708659 0.000582769 0.000514637 0.000582769 0.000514637 0.000488493 0.000335739 0 0 0.000598582 0.000487024 0 0 0.000487024 0.000343656 0.000359416 0 0.000549326 0 0.00105933 0.000549326 0.00143766 0.000744592 0.000549326 0 0.000744592 0 0.000672022 0.000769926 0.000695176 0.000776679 0.000769926 0.000906124 0.000776679 0.000897113 0.000695176 0.000776679 0.000704612 0.000764096 0.000776679 0.000897113 0.000764096 0.000855603 0.000424724 0.000240961 0.000395836 0.000208087 0.000240961 0 0.000208087 0 0.0010796 0.00132662 0.000564438 0.000688706 0.00132662 0.00162357 0.000688706 0.000840415 0.000564438 0.000688706 0 0 0.000688706 0.000840415 0 0 0.00136981 0.00172366 0.00131723 0.0016478 0.00172366 0.00216974 0.0016478 0.00206697 0.00131723 0.0016478 0.00119919 0.00148292 0.0016478 0.00206697 0.00148292 0.00184838 0.000318725 0.000392286 0.000398102 0.000476137 0.000392286 0.000465846 0.000476137 0.000581422 0.000398102 0.000476137 0.000468749 0.000560413 0.000476137 0.000581422 0.000560413 0.000679933 0.000465846 0.000595672 0.000581422 0.000721538 0.000595672 0.000725498 0.000721538 0.000902515 0.000581422 0.000721538 0.000679933 0.000844887 0.000721538 0.000902515 0.000844887 0.00105984 0.000704612 0.000764096 0.000700954 0.000732167 0.000764096 0.000855603 0.000732167 0.000783919 0.000700954 0.000732167 0.000697296 0.000687867 0.000732167 0.000783919 0.000687867 0.000687836 0.000354395 0.000420316 0.000393605 0.000470905 0.000420316 0.000486237 0.000470905 0.000537731 0.000393605 0.000470905 0.000432815 0.000518756 0.000470905 0.000537731 0.000518756 0.000589225 0.000432815 0.000518756 0.000475283 0.000566914 0.000518756 0.000589225 0.000566914 0.000639853 0.000475283 0.000566914 0.00051775 0.000615139 0.000566914 0.000639853 0.000615139 0.000694967 0.000589225 0.000634889 0.000639853 0.000693126 0.000634889 0.000680553 0.000693126 0.000728257 0.000639853 0.000693126 0.000694967 0.000738718 0.000693126 0.000728257 0.000738718 0.00078247 0.000676068 0.000594266 0.000672948 0.000565664 0.000594266 0.000488493 0.000565664 0.000424724 0.000672948 0.000565664 0.000677357 0.000550537 0.000565664 0.000424724 0.000550537 0.000395836 0.000590087 0.000695731 0.000636625 0.000741097 0.000695731 0.000837674 0.000741097 0.000884993 0.000636625 0.000741097 0.000672022 0.000769926 0.000741097 0.000884993 0.000769926 0.000906124 0.000363462 0.000463145 0.00054448 0.000685018 0.000463145 0.000562829 0.000685018 0.000853672 0.00054448 0.000685018 0.000725498 0.00091192 0.000685018 0.000853672 0.00091192 0.00113711 0.000562829 0.000700929 0.000853672 0.00105108 0.000700929 0.00083903 0.00105108 0.00127132 0.000853672 0.00105108 0.00113711 0.0014071 0.00105108 0.00127132 0.0014071 0.00170458 0.000236536 0.000277631 0.000294845 0.000340007 0.000277631 0.000318725 0.000340007 0.000398102 0.000294845 0.000340007 0.000353153 0.000402726 0.000340007 0.000398102 0.000402726 0.000468749 0 0 0.000567581 0.000632956 0 0 0.000632956 0.000684161 0.000567581 0.000632956 0.00114269 0.00127805 0.000632956 0.000684161 0.00127805 0.00138063 0.000353153 0.000402726 0.000406616 0.000461582 0.000402726 0.000468749 0.000461582 0.000533704 0.000406616 0.000461582 0.000460079 0.000515678 0.000461582 0.000533704 0.000515678 0.000590087 0 0 0.000709927 0.000673134 0 0 0.000673134 0.000598582 0.000709927 0.000673134 0.00143509 0.00136099 0.000673134 0.000598582 0.00136099 0.00120918 0.000680553 0.000694537 0.000728257 0.000743412 0.000694537 0.00070852 0.000743412 0.000739711 0.000728257 0.000743412 0.00078247 0.000788411 0.000743412 0.000739711 0.000788411 0.000773157 0.00070852 0.000702908 0.000739711 0.000718932 0.000702908 0.000697296 0.000718932 0.000684829 0.000739711 0.000718932 0.000773157 0.000734391 0.000718932 0.000684829 0.000734391 0.000676068 0.00051775 0.000615139 0.000555816 0.000661019 0.000615139 0.000694967 0.000661019 0.000742727 0.000555816 0.000661019 0.000592351 0.000702764 0.000661019 0.000742727 0.000702764 0.000790487 0.000592351 0.000702764 0.000623483 0.000738851 0.000702764 0.000790487 0.000738851 0.000825493 0.000623483 0.000738851 0.000650542 0.000766675 0.000738851 0.000825493 0.000766675 0.000860499 0.00078247 0.000788411 0.000829539 0.000831713 0.000788411 0.000773157 0.000831713 0.000805972 0.000829539 0.000831713 0.000876609 0.000871561 0.000831713 0.000805972 0.000871561 0.000837745 0.00143766 0.000744592 0.0018217 0.000944207 0.000744592 0 0.000944207 0 0.00119919 0.00148292 0.00101474 0.00122795 0.00148292 0.00184838 0.00122795 0.00151595 0.00101474 0.00122795 0.000768163 0.000889251 0.00122795 0.00151595 0.000889251 0.0010796 0.00218887 0.00113612 0.00252308 0.00130827 0.00252308 0.00130827 0.00278934 0.00144985 0.000773157 0.000734391 0.000805972 0.000752264 0.000734391 0.000676068 0.000752264 0.000672948 0.000805972 0.000752264 0.000837745 0.000771609 0.000752264 0.000672948 0.000771609 0.000677357 0.00253526 0.00301787 0.00288683 0.00344259 0.000876609 0.000871561 0.000911173 0.000906048 0.000871561 0.000837745 0.000906048 0.000865727 0.000911173 0.000906048 0.000945737 0.000932547 0.000906048 0.000865727 0.000932547 0.000887734 0.0023328 0.00261488 0.00293053 0.00328827 0.000837745 0.000771609 0.000865727 0.000790634 0.000771609 0.000677357 0.000790634 0.000685737 0.000865727 0.000790634 0.000887734 0.000806646 0.000790634 0.000685737 0.000806646 0.000694534 0.00227724 0.00258228 0.00118127 0.00133932 0.00258228 0.00282804 0.00133932 0.0014688 0.00133932 0.0014688 0 0 0.000460079 0.000515678 0.000507704 0.000563722 0.000515678 0.000590087 0.000563722 0.000636625 0.000507704 0.000563722 0.000555329 0.000604991 0.000563722 0.000636625 0.000604991 0.000672022 0.000555329 0.000604991 0.000595352 0.000639153 0.000604991 0.000672022 0.000639153 0.000695176 0.000595352 0.000639153 0.000635375 0.000669994 0.000639153 0.000695176 0.000669994 0.000704612 0 0 0.000419515 0.000493451 0 0 0.000493451 0.000567581 0.000419515 0.000493451 0.00083903 0.000993401 0.000493451 0.000567581 0.000993401 0.00114269 0.00083903 0.000993401 0.00127132 0.00150417 0.000993401 0.00114269 0.00150417 0.00173398 0.00127132 0.00150417 0.00170458 0.00202193 0.00150417 0.00173398 0.00202193 0.0023328 0.00203452 0.00143766 0.0025704 0.0018217 0.00027532 0.000396535 0.000295893 0.000432234 0.000396535 0.00051775 0.000432234 0.000555816 0.000295893 0.000432234 0.000316467 0.000461707 0.000432234 0.000555816 0.000461707 0.000592351 0.000316467 0.000461707 0.000333013 0.000486235 0.000461707 0.000592351 0.000486235 0.000623483 0.000333013 0.000486235 0.000349559 0.00050005 0.000486235 0.000623483 0.00050005 0.000650542 0.000697296 0.000687867 0.000684829 0.000638551 0.000687867 0.000687836 0.000638551 0.000582769 0.000684829 0.000638551 0.000676068 0.000594266 0.000638551 0.000582769 0.000594266 0.000488493 0 0 0.000343656 0.00017769 0 0 0.00017769 0 0.000343656 0.00017769 0.000694673 0.000359416 0.00017769 0 0.000359416 0 0.000650542 0.000766675 0.000660285 0.000783404 0.000766675 0.000860499 0.000783404 0.000874125 0.000660285 0.000783404 0.000670027 0.000787597 0.000783404 0.000874125 0.000787597 0.000883968 0.000860499 0.000903118 0.000874125 0.00093231 0.000903118 0.000945737 0.00093231 0.000958092 0.000874125 0.00093231 0.000883968 0.000927057 0.00093231 0.000958092 0.000927057 0.000970145 0.000670027 0.000787597 0.000654436 0.00077716 0.000787597 0.000883968 0.00077716 0.000863156 0.000654436 0.00077716 0.000638844 0.000749953 0.00077716 0.000863156 0.000749953 0.000842343 0.000677357 0.000550537 0.000685737 0.00054875 0.000550537 0.000395836 0.00054875 0.000385069 0.000685737 0.00054875 0.000694534 0.00055137 0.00054875 0.000385069 0.00055137 0.000384557 0.000395836 0.000208087 0.000385069 0.000198239 0.000208087 0 0.000198239 0 0.000385069 0.000198239 0.000384557 0.000192278 0.000198239 0 0.000192278 0 0.000295298 0.000421986 0.0002556 0.000374257 0.000421986 0.000548675 0.000374257 0.000479549 0.0002556 0.000374257 0.000215902 0.000309038 0.000374257 0.000479549 0.000309038 0.000402174 0.000694534 0.00055137 0.000698977 0.000553286 0.00055137 0.000384557 0.000553286 0.000383987 0.000698977 0.000553286 0.000703262 0.00054334 0.000553286 0.000383987 0.00054334 0.000383418 0.000945737 0.000932547 0.000958092 0.000947497 0.000932547 0.000887734 0.000947497 0.000899571 0.000958092 0.000947497 0.000970145 0.00093911 0.000947497 0.000899571 0.00093911 0.000908075 0.000887734 0.000806646 0.000899571 0.000815571 0.000806646 0.000694534 0.000815571 0.000698977 0.000899571 0.000815571 0.000908075 0.000805669 0.000815571 0.000698977 0.000805669 0.000703262 0.00162357 0.00194664 0.000840415 0.00101039 0.000840415 0.00101039 0 0 0.000638844 0.000749953 0.000593759 0.000706228 0.000749953 0.000842343 0.000706228 0.000783609 0.000593759 0.000706228 0.000548675 0.000645042 0.000706228 0.000783609 0.000645042 0.000724875 0.000548675 0.000645042 0.000479549 0.000567185 0.000645042 0.000724875 0.000567185 0.000629023 0.000479549 0.000567185 0.000402174 0.000473816 0.000567185 0.000629023 0.000473816 0.000533172 0.000402174 0.000473816 0.000307785 0.000367251 0.000473816 0.000533172 0.000367251 0.000408187 0.000307785 0.000367251 0.000213396 0.000248299 0.000367251 0.000408187 0.000248299 0.000283202 0.000567679 0.000437808 0.000491751 0.000388275 0.000437808 0.000307938 0.000388275 0.000266189 0.000491751 0.000388275 0.000415822 0.000320131 0.000388275 0.000266189 0.000320131 0.00022444 0.00054229 0.000479056 0.000414907 0.000375575 0.000479056 0.000415822 0.000375575 0.000317644 0.000414907 0.000375575 0.000287523 0.000253495 0.000375575 0.000317644 0.000253495 0.000219467 0.00427602 0.00438259 0.00459582 0.00472384 0.00472384 0.00481251 0.00504031 0.00512297 0.00504031 0.00512297 0.00530592 0.00541057 0.00516261 0.00530592 0.00538537 0.00554567 0.00530592 0.00541057 0.00554567 0.00564514 0.00258227 0.00286888 0.00264288 0.00294631 0.00286888 0.00315549 0.00294631 0.00324315 0.00264288 0.00294631 0.00270349 0.00300609 0.00294631 0.00324315 0.00300609 0.00330868 0.00216634 0.00243492 0.00217644 0.00243922 0.00243492 0.00270349 0.00243922 0.0027048 0.00217644 0.00243922 0.00216974 0.00243094 0.00243922 0.0027048 0.00243094 0.00270611 0.00438472 0.00467373 0.00452005 0.00481711 0.00481711 0.00510511 0.00492144 0.00520112 0.00518397 0.00538537 0.00534492 0.00556358 0.00510511 0.00534492 0.00520112 0.00546384 0.00534492 0.00556358 0.00546384 0.00567804 0.00216974 0.00243094 0.00211836 0.00237876 0.00243094 0.00270611 0.00237876 0.00264776 0.00211836 0.00237876 0.00206697 0.00231316 0.00237876 0.00264776 0.00231316 0.0025728 0.00206697 0.00231316 0.00195768 0.0021958 0.00231316 0.0025728 0.0021958 0.00243996 0.00195768 0.0021958 0.00184838 0.00206483 0.0021958 0.00243996 0.00206483 0.00229422 0.00113711 0.0012721 0.00127913 0.00142834 0.0012721 0.0014071 0.00142834 0.0015804 0.00127913 0.00142834 0.00141792 0.00158284 0.00142834 0.0015804 0.00158284 0.0017537 0.00141792 0.00158284 0.00154843 0.00173201 0.00158284 0.0017537 0.00173201 0.00192067 0.00154843 0.00173201 0.0016757 0.00187492 0.00173201 0.00192067 0.00187492 0.00208133 0.00374358 0.00372289 0.0041286 0.00410412 0.0017537 0.00194377 0.00192067 0.00212896 0.00194377 0.00213384 0.00212896 0.00233455 0.00192067 0.00212896 0.00208133 0.00230829 0.00212896 0.00233455 0.00230829 0.00253526 0.00270611 0.00301106 0.00264776 0.00295083 0.00301106 0.00331601 0.00295083 0.00325375 0.00295083 0.00325375 0.00285445 0.00315522 0.00372289 0.00365667 0.00410412 0.00402832 0.00365667 0.00353826 0.00402832 0.00390004 0.00353826 0.00337134 0.00390004 0.00371514 0.00337134 0.00315103 0.00371514 0.00347449 0.00209886 0.00214323 0.00246557 0.00252471 0.00214323 0.00218761 0.00252471 0.00257081 0.00246557 0.00252471 0.00283227 0.00290055 0.00252471 0.00257081 0.00290055 0.0029544 0.00285445 0.00315522 0.00271948 0.00300017 0.00271948 0.00300017 0.0025435 0.00281224 0.00315103 0.00288562 0.00347449 0.00318012 0.00288562 0.0025704 0.00318012 0.00283225 0.0025704 0.00219605 0.00283225 0.002439 0.00219605 0.0018217 0.002439 0.00200486 0.00218761 0.00218507 0.00257081 0.00257484 0.00218507 0.00218253 0.00257484 0.00256803 0.00257081 0.00257484 0.0029544 0.00296007 0.00257484 0.00256803 0.00296007 0.00295363 0.00377126 0.00408075 0.0038743 0.0042032 0.00408075 0.00438472 0.0042032 0.00452005 0.0038743 0.0042032 0.00395808 0.00428573 0.0042032 0.00452005 0.00428573 0.00460762 0.00143509 0.00139804 0.00180881 0.00176806 0.00139804 0.00136099 0.00176806 0.00171465 0.00180881 0.00176806 0.00218253 0.00213269 0.00176806 0.00171465 0.00213269 0.00206942 0.00428573 0.00460762 0.00432082 0.00464606 0.00398768 0.00432082 0.00396629 0.00430153 0.00432082 0.00464606 0.00430153 0.00462832 0.00136099 0.00128508 0.00171465 0.00162399 0.00128508 0.00120918 0.00162399 0.00152539 0.00171465 0.00162399 0.00206942 0.00196105 0.00162399 0.00152539 0.00196105 0.00184161 0.00396629 0.00430153 0.00390212 0.0042289 0.00430153 0.00462832 0.0042289 0.00455081 0.00390212 0.0042289 0.00377727 0.00409704 0.00218253 0.00213269 0.00256803 0.00251077 0.00213269 0.00206942 0.00251077 0.00243847 0.00256803 0.00251077 0.00295363 0.00288642 0.00251077 0.00243847 0.00288642 0.00280628 0.00377727 0.00409704 0.00360227 0.00390583 0.00360227 0.00390583 0.00336838 0.00365471 0.00206942 0.00196105 0.00243847 0.00231123 0.00196105 0.00184161 0.00231123 0.00217045 0.00243847 0.00231123 0.00280628 0.00265847 0.00231123 0.00217045 0.00265847 0.0024986 0.00336838 0.00365471 0.00308561 0.00334619 0.00308561 0.00334619 0.00274944 0.00298292 0.00120918 0.00110147 0.00152539 0.00139078 0.00110147 0.000984028 0.00139078 0.00124192 0.00152539 0.00139078 0.00184161 0.00167672 0.00139078 0.00124192 0.00167672 0.00149981 0.00274944 0.00298292 0.00236814 0.00256808 0.00236814 0.00256808 0.00194664 0.00211231 0.00184161 0.00167672 0.00217045 0.00197582 0.00167672 0.00149981 0.00197582 0.00176635 0.00217045 0.00197582 0.0024986 0.00227303 0.00197582 0.00176635 0.00227303 0.00203452 0.00538537 0.00554567 0.00556358 0.00571814 0.00554567 0.00564514 0.00571814 0.00583554 0.00556358 0.00571814 0.00567804 0.00584798 0.00571814 0.00583554 0.00584798 0.00596092 0.00588183 0.00585216 0.00600304 0.00598227 0.00149981 0.00127957 0.00176635 0.00151033 0.00127957 0.00105933 0.00151033 0.00124849 0.00176635 0.00151033 0.00203452 0.00173609 0.00151033 0.00124849 0.00173609 0.00143766 0.00184838 0.00206483 0.00168217 0.00188355 0.00206483 0.00229422 0.00188355 0.00208943 0.00168217 0.00188355 0.00151595 0.00168931 0.00188355 0.00208943 0.00168931 0.00187286 0.00570534 0.00542319 0.0057648 0.00548219 0.00151595 0.00168931 0.00129778 0.00145156 0.00168931 0.00187286 0.00145156 0.00160753 0.00129778 0.00145156 0.0010796 0.00120311 0.00145156 0.00160753 0.00120311 0.00132662 0.00295363 0.00288642 0.00333927 0.00327552 0.00288642 0.00280628 0.00327552 0.00316793 0.00333927 0.00327552 0.00372289 0.00365667 0.00327552 0.00316793 0.00365667 0.00353826 0.00265847 0.0024986 0.00302204 0.00281915 0.0024986 0.00227303 0.00281915 0.00258546 0.00227303 0.00203452 0.00258546 0.00230246 0.00258546 0.00230246 0.00288562 0.0025704 0.00187286 0.00208218 0.00160753 0.00178782 0.00208218 0.00229462 0.00178782 0.00196792 0.00160753 0.00178782 0.00132662 0.00147509 0.00178782 0.00196792 0.00147509 0.00162357 0.00576471 0.00576313 0.00551211 0.00549521 0.00456427 0.00406412 0.00466684 0.00414504 0.00466684 0.00414504 0.00470136 0.00419198 0.00278934 0.0021196 0.0028776 0.00219577 0.0021196 0.00144985 0.00219577 0.00148644 0.00144985 0.000727723 0.00148644 0.000752541 0.000727723 0 0.000752541 0 0.000752541 0 0.000764246 0 0.000764246 0 0.000774332 0 0.000774332 0 0.000773383 0 0.00330868 0.00363192 0.00331235 0.00365217 0.00331235 0.00365217 0.00331601 0.00363555 0.00365217 0.00398768 0.00363555 0.00396629 0.000773383 0 0.000762197 0 0.000762197 0 0.000740121 0 0.000740121 0 0.000706796 0 0.000706796 0 0.000662389 0 0.00460886 0.00470103 0.00410542 0.00417684 0.00470103 0.00472665 0.00417684 0.0042161 0.00331601 0.00363555 0.00325375 0.00357619 0.00325375 0.00357619 0.00315522 0.00345956 0.00282804 0.00290805 0.00214842 0.00222171 0.00214842 0.0022217