<?xml version="1.0" ?> 
<!-- 
# vtk DataFile Version 3.0
#This file was generated by the deal.II library on 21:46:31 at 2021/4/29
-->
<VTKFile type="UnstructuredGrid" version="0.1" byte_order="LittleEndian">
<UnstructuredGrid>
<Piece NumberOfPoints="65536" NumberOfCells="16384" >
  <Points>
    <DataArray type="Float32" NumberOfComponents="3" format="ascii">
-1 -1 0
-0.984375 -1 0
-1 -0.984375 0
-0.984375 -0.984375 0
-0.984375 -1 0
-0.96875 -1 0
-0.984375 -0.984375 0
-0.96875 -0.984375 0
-1 -0.984375 0
-0.984375 -0.984375 0
-1 -0.96875 0
-0.984375 -0.96875 0
-0.984375 -0.984375 0
-0.96875 -0.984375 0
-0.984375 -0.96875 0
-0.96875 -0.96875 0
-0.96875 -1 0
-0.953125 -1 0
-0.96875 -0.984375 0
-0.953125 -0.984375 0
-0.953125 -1 0
-0.9375 -1 0
-0.953125 -0.984375 0
-0.9375 -0.984375 0
-0.96875 -0.984375 0
-0.953125 -0.984375 0
-0.96875 -0.96875 0
-0.953125 -0.96875 0
-0.953125 -0.984375 0
-0.9375 -0.984375 0
-0.953125 -0.96875 0
-0.9375 -0.96875 0
-1 -0.96875 0
-0.984375 -0.96875 0
-1 -0.953125 0
-0.984375 -0.953125 0
-0.984375 -0.96875 0
-0.96875 -0.96875 0
-0.984375 -0.953125 0
-0.96875 -0.953125 0
-1 -0.953125 0
-0.984375 -0.953125 0
-1 -0.9375 0
-0.984375 -0.9375 0
-0.984375 -0.953125 0
-0.96875 -0.953125 0
-0.984375 -0.9375 0
-0.96875 -0.9375 0
-0.96875 -0.96875 0
-0.953125 -0.96875 0
-0.96875 -0.953125 0
-0.953125 -0.953125 0
-0.953125 -0.96875 0
-0.9375 -0.96875 0
-0.953125 -0.953125 0
-0.9375 -0.953125 0
-0.96875 -0.953125 0
-0.953125 -0.953125 0
-0.96875 -0.9375 0
-0.953125 -0.9375 0
-0.953125 -0.953125 0
-0.9375 -0.953125 0
-0.953125 -0.9375 0
-0.9375 -0.9375 0
-0.9375 -1 0
-0.921875 -1 0
-0.9375 -0.984375 0
-0.921875 -0.984375 0
-0.921875 -1 0
-0.90625 -1 0
-0.921875 -0.984375 0
-0.90625 -0.984375 0
-0.9375 -0.984375 0
-0.921875 -0.984375 0
-0.9375 -0.96875 0
-0.921875 -0.96875 0
-0.921875 -0.984375 0
-0.90625 -0.984375 0
-0.921875 -0.96875 0
-0.90625 -0.96875 0
-0.90625 -1 0
-0.890625 -1 0
-0.90625 -0.984375 0
-0.890625 -0.984375 0
-0.890625 -1 0
-0.875 -1 0
-0.890625 -0.984375 0
-0.875 -0.984375 0
-0.90625 -0.984375 0
-0.890625 -0.984375 0
-0.90625 -0.96875 0
-0.890625 -0.96875 0
-0.890625 -0.984375 0
-0.875 -0.984375 0
-0.890625 -0.96875 0
-0.875 -0.96875 0
-0.9375 -0.96875 0
-0.921875 -0.96875 0
-0.9375 -0.953125 0
-0.921875 -0.953125 0
-0.921875 -0.96875 0
-0.90625 -0.96875 0
-0.921875 -0.953125 0
-0.90625 -0.953125 0
-0.9375 -0.953125 0
-0.921875 -0.953125 0
-0.9375 -0.9375 0
-0.921875 -0.9375 0
-0.921875 -0.953125 0
-0.90625 -0.953125 0
-0.921875 -0.9375 0
-0.90625 -0.9375 0
-0.90625 -0.96875 0
-0.890625 -0.96875 0
-0.90625 -0.953125 0
-0.890625 -0.953125 0
-0.890625 -0.96875 0
-0.875 -0.96875 0
-0.890625 -0.953125 0
-0.875 -0.953125 0
-0.90625 -0.953125 0
-0.890625 -0.953125 0
-0.90625 -0.9375 0
-0.890625 -0.9375 0
-0.890625 -0.953125 0
-0.875 -0.953125 0
-0.890625 -0.9375 0
-0.875 -0.9375 0
-1 -0.9375 0
-0.984375 -0.9375 0
-1 -0.921875 0
-0.984375 -0.921875 0
-0.984375 -0.9375 0
-0.96875 -0.9375 0
-0.984375 -0.921875 0
-0.96875 -0.921875 0
-1 -0.921875 0
-0.984375 -0.921875 0
-1 -0.90625 0
-0.984375 -0.90625 0
-0.984375 -0.921875 0
-0.96875 -0.921875 0
-0.984375 -0.90625 0
-0.96875 -0.90625 0
-0.96875 -0.9375 0
-0.953125 -0.9375 0
-0.96875 -0.921875 0
-0.953125 -0.921875 0
-0.953125 -0.9375 0
-0.9375 -0.9375 0
-0.953125 -0.921875 0
-0.9375 -0.921875 0
-0.96875 -0.921875 0
-0.953125 -0.921875 0
-0.96875 -0.90625 0
-0.953125 -0.90625 0
-0.953125 -0.921875 0
-0.9375 -0.921875 0
-0.953125 -0.90625 0
-0.9375 -0.90625 0
-1 -0.90625 0
-0.984375 -0.90625 0
-1 -0.890625 0
-0.984375 -0.890625 0
-0.984375 -0.90625 0
-0.96875 -0.90625 0
-0.984375 -0.890625 0
-0.96875 -0.890625 0
-1 -0.890625 0
-0.984375 -0.890625 0
-1 -0.875 0
-0.984375 -0.875 0
-0.984375 -0.890625 0
-0.96875 -0.890625 0
-0.984375 -0.875 0
-0.96875 -0.875 0
-0.96875 -0.90625 0
-0.953125 -0.90625 0
-0.96875 -0.890625 0
-0.953125 -0.890625 0
-0.953125 -0.90625 0
-0.9375 -0.90625 0
-0.953125 -0.890625 0
-0.9375 -0.890625 0
-0.96875 -0.890625 0
-0.953125 -0.890625 0
-0.96875 -0.875 0
-0.953125 -0.875 0
-0.953125 -0.890625 0
-0.9375 -0.890625 0
-0.953125 -0.875 0
-0.9375 -0.875 0
-0.9375 -0.9375 0
-0.921875 -0.9375 0
-0.9375 -0.921875 0
-0.921875 -0.921875 0
-0.921875 -0.9375 0
-0.90625 -0.9375 0
-0.921875 -0.921875 0
-0.90625 -0.921875 0
-0.9375 -0.921875 0
-0.921875 -0.921875 0
-0.9375 -0.90625 0
-0.921875 -0.90625 0
-0.921875 -0.921875 0
-0.90625 -0.921875 0
-0.921875 -0.90625 0
-0.90625 -0.90625 0
-0.90625 -0.9375 0
-0.890625 -0.9375 0
-0.90625 -0.921875 0
-0.890625 -0.921875 0
-0.890625 -0.9375 0
-0.875 -0.9375 0
-0.890625 -0.921875 0
-0.875 -0.921875 0
-0.90625 -0.921875 0
-0.890625 -0.921875 0
-0.90625 -0.90625 0
-0.890625 -0.90625 0
-0.890625 -0.921875 0
-0.875 -0.921875 0
-0.890625 -0.90625 0
-0.875 -0.90625 0
-0.9375 -0.90625 0
-0.921875 -0.90625 0
-0.9375 -0.890625 0
-0.921875 -0.890625 0
-0.921875 -0.90625 0
-0.90625 -0.90625 0
-0.921875 -0.890625 0
-0.90625 -0.890625 0
-0.9375 -0.890625 0
-0.921875 -0.890625 0
-0.9375 -0.875 0
-0.921875 -0.875 0
-0.921875 -0.890625 0
-0.90625 -0.890625 0
-0.921875 -0.875 0
-0.90625 -0.875 0
-0.90625 -0.90625 0
-0.890625 -0.90625 0
-0.90625 -0.890625 0
-0.890625 -0.890625 0
-0.890625 -0.90625 0
-0.875 -0.90625 0
-0.890625 -0.890625 0
-0.875 -0.890625 0
-0.90625 -0.890625 0
-0.890625 -0.890625 0
-0.90625 -0.875 0
-0.890625 -0.875 0
-0.890625 -0.890625 0
-0.875 -0.890625 0
-0.890625 -0.875 0
-0.875 -0.875 0
-0.875 -1 0
-0.859375 -1 0
-0.875 -0.984375 0
-0.859375 -0.984375 0
-0.859375 -1 0
-0.84375 -1 0
-0.859375 -0.984375 0
-0.84375 -0.984375 0
-0.875 -0.984375 0
-0.859375 -0.984375 0
-0.875 -0.96875 0
-0.859375 -0.96875 0
-0.859375 -0.984375 0
-0.84375 -0.984375 0
-0.859375 -0.96875 0
-0.84375 -0.96875 0
-0.84375 -1 0
-0.828125 -1 0
-0.84375 -0.984375 0
-0.828125 -0.984375 0
-0.828125 -1 0
-0.8125 -1 0
-0.828125 -0.984375 0
-0.8125 -0.984375 0
-0.84375 -0.984375 0
-0.828125 -0.984375 0
-0.84375 -0.96875 0
-0.828125 -0.96875 0
-0.828125 -0.984375 0
-0.8125 -0.984375 0
-0.828125 -0.96875 0
-0.8125 -0.96875 0
-0.875 -0.96875 0
-0.859375 -0.96875 0
-0.875 -0.953125 0
-0.859375 -0.953125 0
-0.859375 -0.96875 0
-0.84375 -0.96875 0
-0.859375 -0.953125 0
-0.84375 -0.953125 0
-0.875 -0.953125 0
-0.859375 -0.953125 0
-0.875 -0.9375 0
-0.859375 -0.9375 0
-0.859375 -0.953125 0
-0.84375 -0.953125 0
-0.859375 -0.9375 0
-0.84375 -0.9375 0
-0.84375 -0.96875 0
-0.828125 -0.96875 0
-0.84375 -0.953125 0
-0.828125 -0.953125 0
-0.828125 -0.96875 0
-0.8125 -0.96875 0
-0.828125 -0.953125 0
-0.8125 -0.953125 0
-0.84375 -0.953125 0
-0.828125 -0.953125 0
-0.84375 -0.9375 0
-0.828125 -0.9375 0
-0.828125 -0.953125 0
-0.8125 -0.953125 0
-0.828125 -0.9375 0
-0.8125 -0.9375 0
-0.8125 -1 0
-0.796875 -1 0
-0.8125 -0.984375 0
-0.796875 -0.984375 0
-0.796875 -1 0
-0.78125 -1 0
-0.796875 -0.984375 0
-0.78125 -0.984375 0
-0.8125 -0.984375 0
-0.796875 -0.984375 0
-0.8125 -0.96875 0
-0.796875 -0.96875 0
-0.796875 -0.984375 0
-0.78125 -0.984375 0
-0.796875 -0.96875 0
-0.78125 -0.96875 0
-0.78125 -1 0
-0.765625 -1 0
-0.78125 -0.984375 0
-0.765625 -0.984375 0
-0.765625 -1 0
-0.75 -1 0
-0.765625 -0.984375 0
-0.75 -0.984375 0
-0.78125 -0.984375 0
-0.765625 -0.984375 0
-0.78125 -0.96875 0
-0.765625 -0.96875 0
-0.765625 -0.984375 0
-0.75 -0.984375 0
-0.765625 -0.96875 0
-0.75 -0.96875 0
-0.8125 -0.96875 0
-0.796875 -0.96875 0
-0.8125 -0.953125 0
-0.796875 -0.953125 0
-0.796875 -0.96875 0
-0.78125 -0.96875 0
-0.796875 -0.953125 0
-0.78125 -0.953125 0
-0.8125 -0.953125 0
-0.796875 -0.953125 0
-0.8125 -0.9375 0
-0.796875 -0.9375 0
-0.796875 -0.953125 0
-0.78125 -0.953125 0
-0.796875 -0.9375 0
-0.78125 -0.9375 0
-0.78125 -0.96875 0
-0.765625 -0.96875 0
-0.78125 -0.953125 0
-0.765625 -0.953125 0
-0.765625 -0.96875 0
-0.75 -0.96875 0
-0.765625 -0.953125 0
-0.75 -0.953125 0
-0.78125 -0.953125 0
-0.765625 -0.953125 0
-0.78125 -0.9375 0
-0.765625 -0.9375 0
-0.765625 -0.953125 0
-0.75 -0.953125 0
-0.765625 -0.9375 0
-0.75 -0.9375 0
-0.875 -0.9375 0
-0.859375 -0.9375 0
-0.875 -0.921875 0
-0.859375 -0.921875 0
-0.859375 -0.9375 0
-0.84375 -0.9375 0
-0.859375 -0.921875 0
-0.84375 -0.921875 0
-0.875 -0.921875 0
-0.859375 -0.921875 0
-0.875 -0.90625 0
-0.859375 -0.90625 0
-0.859375 -0.921875 0
-0.84375 -0.921875 0
-0.859375 -0.90625 0
-0.84375 -0.90625 0
-0.84375 -0.9375 0
-0.828125 -0.9375 0
-0.84375 -0.921875 0
-0.828125 -0.921875 0
-0.828125 -0.9375 0
-0.8125 -0.9375 0
-0.828125 -0.921875 0
-0.8125 -0.921875 0
-0.84375 -0.921875 0
-0.828125 -0.921875 0
-0.84375 -0.90625 0
-0.828125 -0.90625 0
-0.828125 -0.921875 0
-0.8125 -0.921875 0
-0.828125 -0.90625 0
-0.8125 -0.90625 0
-0.875 -0.90625 0
-0.859375 -0.90625 0
-0.875 -0.890625 0
-0.859375 -0.890625 0
-0.859375 -0.90625 0
-0.84375 -0.90625 0
-0.859375 -0.890625 0
-0.84375 -0.890625 0
-0.875 -0.890625 0
-0.859375 -0.890625 0
-0.875 -0.875 0
-0.859375 -0.875 0
-0.859375 -0.890625 0
-0.84375 -0.890625 0
-0.859375 -0.875 0
-0.84375 -0.875 0
-0.84375 -0.90625 0
-0.828125 -0.90625 0
-0.84375 -0.890625 0
-0.828125 -0.890625 0
-0.828125 -0.90625 0
-0.8125 -0.90625 0
-0.828125 -0.890625 0
-0.8125 -0.890625 0
-0.84375 -0.890625 0
-0.828125 -0.890625 0
-0.84375 -0.875 0
-0.828125 -0.875 0
-0.828125 -0.890625 0
-0.8125 -0.890625 0
-0.828125 -0.875 0
-0.8125 -0.875 0
-0.8125 -0.9375 0
-0.796875 -0.9375 0
-0.8125 -0.921875 0
-0.796875 -0.921875 0
-0.796875 -0.9375 0
-0.78125 -0.9375 0
-0.796875 -0.921875 0
-0.78125 -0.921875 0
-0.8125 -0.921875 0
-0.796875 -0.921875 0
-0.8125 -0.90625 0
-0.796875 -0.90625 0
-0.796875 -0.921875 0
-0.78125 -0.921875 0
-0.796875 -0.90625 0
-0.78125 -0.90625 0
-0.78125 -0.9375 0
-0.765625 -0.9375 0
-0.78125 -0.921875 0
-0.765625 -0.921875 0
-0.765625 -0.9375 0
-0.75 -0.9375 0
-0.765625 -0.921875 0
-0.75 -0.921875 0
-0.78125 -0.921875 0
-0.765625 -0.921875 0
-0.78125 -0.90625 0
-0.765625 -0.90625 0
-0.765625 -0.921875 0
-0.75 -0.921875 0
-0.765625 -0.90625 0
-0.75 -0.90625 0
-0.8125 -0.90625 0
-0.796875 -0.90625 0
-0.8125 -0.890625 0
-0.796875 -0.890625 0
-0.796875 -0.90625 0
[...]
  <PointData Scalars="scalars">
    <DataArray type="Float32" Name="U" format="ascii">
0 0 0 -0.00435365 0 0 -0.00435365 -0.00604819 0 -0.00435365 0 -0.0085227 -0.00435365 -0.00604819 -0.0085227 -0.0118324 0 0 -0.00604819 -0.00420818 0 0 -0.00420818 -0.000286612 -0.00604819 -0.00420818 -0.0118324 -0.00823522 -0.00420818 -0.000286612 -0.00823522 -0.000561021 0 -0.0085227 0 -0.0123525 -0.0085227 -0.0118324 -0.0123525 -0.0171452 0 -0.0123525 0 -0.0156907 -0.0123525 -0.0171452 -0.0156907 -0.0218047 -0.0118324 -0.00823522 -0.0171452 -0.0119674 -0.00823522 -0.000561021 -0.0119674 -0.000900487 -0.0171452 -0.0119674 -0.0218047 -0.0152669 -0.0119674 -0.000900487 -0.0152669 -0.00137828 0 0 -0.000286612 0.00309208 0 0 0.00309208 0.00383273 -0.000286612 0.00309208 -0.000561021 0.00600023 0.00309208 0.00383273 0.00600023 0.00741688 0 0 0.00383273 0.00164547 0 0 0.00164547 -0.00242556 0.00383273 0.00164547 0.00741688 0.00303532 0.00164547 -0.00242556 0.00303532 -0.00495615 -0.000561021 0.00600023 -0.000900487 0.0084674 0.00600023 0.00741688 0.0084674 0.0103776 -0.000900487 0.0084674 -0.00137828 0.0103168 0.0084674 0.0103776 0.0103168 0.0123968 0.00741688 0.00303532 0.0103776 0.00383743 0.00303532 -0.00495615 0.00383743 -0.0079007 0.0103776 0.00383743 0.0123968 0.00382712 0.00383743 -0.0079007 0.00382712 -0.0114549 0 -0.0156907 0 -0.0184036 -0.0156907 -0.0218047 -0.0184036 -0.0255861 0 -0.0184036 0 -0.0204112 -0.0184036 -0.0255861 -0.0204112 -0.0283958 -0.0218047 -0.0152669 -0.0255861 -0.0179974 -0.0152669 -0.00137828 -0.0179974 -0.00190394 -0.0255861 -0.0179974 -0.0283958 -0.0201262 -0.0179974 -0.00190394 -0.0201262 -0.00257941 0 -0.0204112 0 -0.021672 -0.0204112 -0.0283958 -0.021672 -0.0302221 0 -0.021672 0 -0.0221638 -0.021672 -0.0302221 -0.0221638 -0.0310066 -0.0283958 -0.0201262 -0.0302221 -0.021654 -0.0201262 -0.00257941 -0.021654 -0.0035335 -0.0302221 -0.021654 -0.0310066 -0.0225776 -0.021654 -0.0035335 -0.0225776 -0.0047304 -0.00137828 0.0103168 -0.00190394 0.0114497 0.0103168 0.0123968 0.0114497 0.0134469 -0.00190394 0.0114497 -0.00257941 0.0116677 0.0114497 0.0134469 0.0116677 0.0132294 0.0123968 0.00382712 0.0134469 0.00288569 0.00382712 -0.0114549 0.00288569 -0.0155103 0.0134469 0.00288569 0.0132294 0.000756666 0.00288569 -0.0155103 0.000756666 -0.0203723 -0.00257941 0.0116677 -0.0035335 0.0108556 0.0116677 0.0132294 0.0108556 0.0115495 -0.0035335 0.0108556 -0.0047304 0.00894941 0.0108556 0.0115495 0.00894941 0.00841929 0.0132294 0.000756666 0.0115495 -0.00263546 0.000756666 -0.0203723 -0.00263546 -0.0261484 0.0115495 -0.00263546 0.00841929 -0.00741302 -0.00263546 -0.0261484 -0.00741302 -0.0328794 0 0 -0.00242556 -0.00696564 0 0 -0.00696564 -0.0114897 -0.00242556 -0.00696564 -0.00495615 -0.0139854 -0.00696564 -0.0114897 -0.0139854 -0.0228669 0 0 -0.0114897 -0.0159266 0 0 -0.0159266 -0.0203756 -0.0114897 -0.0159266 -0.0228669 -0.0318076 -0.0159266 -0.0203756 -0.0318076 -0.040574 -0.00495615 -0.0139854 -0.0079007 -0.0211984 -0.0139854 -0.0228669 -0.0211984 -0.0343352 -0.0079007 -0.0211984 -0.0114549 -0.0286244 -0.0211984 -0.0343352 -0.0286244 -0.0458541 -0.0228669 -0.0318076 -0.0343352 -0.0476528 -0.0318076 -0.040574 -0.0476528 -0.0608094 -0.0343352 -0.0476528 -0.0458541 -0.0632967 -0.0476528 -0.0608094 -0.0632967 -0.0808333 0 0 -0.0203756 -0.0239964 0 0 -0.0239964 -0.0262594 -0.0203756 -0.0239964 -0.040574 -0.0480256 -0.0239964 -0.0262594 -0.0480256 -0.0524322 0 0 -0.0262594 -0.0267063 0 0 -0.0267063 -0.0260884 -0.0262594 -0.0267063 -0.0524322 -0.0536291 -0.0267063 -0.0260884 -0.0536291 -0.0521403 -0.040574 -0.0480256 -0.0608094 -0.0719912 -0.0480256 -0.0524322 -0.0719912 -0.0787106 -0.0608094 -0.0719912 -0.0808333 -0.0956414 -0.0719912 -0.0787106 -0.0956414 -0.10478 -0.0524322 -0.0536291 -0.0787106 -0.0803794 -0.0536291 -0.0521403 -0.0803794 -0.0780339 -0.0787106 -0.0803794 -0.10478 -0.106878 -0.0803794 -0.0780339 -0.106878 -0.103583 -0.0114549 -0.0286244 -0.0155103 -0.0362802 -0.0286244 -0.0458541 -0.0362802 -0.0572293 -0.0155103 -0.0362802 -0.0203723 -0.0443355 -0.0362802 -0.0572293 -0.0443355 -0.0687186 -0.0458541 -0.0632967 -0.0572293 -0.0788061 -0.0632967 -0.0808333 -0.0788061 -0.100512 -0.0572293 -0.0788061 -0.0687186 -0.0941752 -0.0788061 -0.100512 -0.0941752 -0.119931 -0.0203723 -0.0443355 -0.0261484 -0.0527905 -0.0443355 -0.0687186 -0.0527905 -0.0803856 -0.0261484 -0.0527905 -0.0328794 -0.0618901 -0.0527905 -0.0803856 -0.0618901 -0.0923615 -0.0687186 -0.0941752 -0.0803856 -0.109434 -0.0941752 -0.119931 -0.109434 -0.139154 -0.0803856 -0.109434 -0.0923615 -0.124849 -0.109434 -0.139154 -0.124849 -0.158146 -0.0808333 -0.0956414 -0.100512 -0.11916 -0.0956414 -0.10478 -0.11916 -0.130562 -0.100512 -0.11916 -0.119931 -0.142207 -0.11916 -0.130562 -0.142207 -0.155953 -0.10478 -0.106878 -0.130562 -0.133292 -0.106878 -0.103583 -0.133292 -0.128541 -0.130562 -0.133292 -0.155953 -0.159145 -0.133292 -0.128541 -0.159145 -0.153009 -0.119931 -0.142207 -0.139154 -0.164879 -0.142207 -0.155953 -0.164879 -0.181003 -0.139154 -0.164879 -0.158146 -0.187105 -0.164879 -0.181003 -0.187105 -0.205285 -0.155953 -0.159145 -0.181003 -0.184594 -0.159145 -0.153009 -0.184594 -0.176893 -0.181003 -0.184594 -0.205285 -0.209296 -0.184594 -0.176893 -0.209296 -0.199848 0 -0.0221638 0 -0.021932 -0.0221638 -0.0310066 -0.021932 -0.0308389 0 -0.021932 0 -0.0210316 -0.021932 -0.0308389 -0.0210316 -0.0298094 -0.0310066 -0.0225776 -0.0308389 -0.0229956 -0.0225776 -0.0047304 -0.0229956 -0.00627393 -0.0308389 -0.0229956 -0.0298094 -0.0229853 -0.0229956 -0.00627393 -0.0229853 -0.00821221 0 -0.0210316 0 -0.0195858 -0.0210316 -0.0298094 -0.0195858 -0.0281118 0 -0.0195858 0 -0.0177121 -0.0195858 -0.0281118 -0.0177121 -0.0259211 -0.0298094 -0.0229853 -0.0281118 -0.0227349 -0.0229853 -0.00821221 -0.0227349 -0.0106564 -0.0281118 -0.0227349 -0.0259211 -0.0223797 -0.0227349 -0.0106564 -0.0223797 -0.0136444 -0.0047304 0.00894941 -0.00627393 0.00591028 0.00894941 0.00841929 0.00591028 0.00383281 -0.00627393 0.00591028 -0.00821221 0.00173711 0.00591028 0.00383281 0.00173711 -0.0022121 0.00841929 -0.00741302 0.00383281 -0.0134726 -0.00741302 -0.0328794 -0.0134726 -0.0404621 0.00383281 -0.0134726 -0.0022121 -0.0208665 -0.0134726 -0.0404621 -0.0208665 -0.04906 -0.00821221 0.00173711 -0.0106564 -0.00357397 0.00173711 -0.0022121 -0.00357397 -0.00962762 -0.0106564 -0.00357397 -0.0136444 -0.00995125 -0.00357397 -0.00962762 -0.00995125 -0.0183034 -0.0022121 -0.0208665 -0.00962762 -0.0294502 -0.0208665 -0.04906 -0.0294502 -0.0585233 -0.00962762 -0.0294502 -0.0183034 -0.0391594 -0.0294502 -0.0585233 -0.0391594 -0.0689086 0 -0.0177121 0 -0.0155779 -0.0177121 -0.0259211 -0.0155779 -0.0234775 0 -0.0155779 0 -0.013351 -0.0155779 -0.0234775 -0.013351 -0.0210427 -0.0259211 -0.0223797 -0.0234775 -0.0221417 -0.0223797 -0.0136444 -0.0221417 -0.0172504 -0.0234775 -0.0221417 -0.0210427 -0.0222219 -0.0221417 -0.0172504 -0.0222219 -0.02157 0 -0.013351 0 -0.0111942 -0.013351 -0.0210427 -0.0111942 -0.0188433 0 -0.0111942 0 -0.00928633 -0.0111942 -0.0188433 -0.00928633 -0.0171408 -0.0210427 -0.0222219 -0.0188433 -0.0227923 -0.0222219 -0.02157 -0.0227923 -0.0266119 -0.0188433 -0.0227923 -0.0171408 -0.0240712 -0.0227923 -0.0266119 -0.0240712 -0.0324571 -0.0136444 -0.00995125 -0.0172504 -0.017353 -0.00995125 -0.0183034 -0.017353 -0.0280706 -0.0172504 -0.017353 -0.02157 -0.0257021 -0.017353 -0.0280706 -0.0257021 -0.0388244 -0.0183034 -0.0391594 -0.0280706 -0.0498494 -0.0391594 -0.0689086 -0.0498494 -0.0800706 -0.0280706 -0.0498494 -0.0388244 -0.0613841 -0.0498494 -0.0800706 -0.0613841 -0.092004 -0.02157 -0.0257021 -0.0266119 -0.0348725 -0.0257021 -0.0388244 -0.0348725 -0.0503487 -0.0266119 -0.0348725 -0.0324571 -0.0448096 -0.0348725 -0.0503487 -0.0448096 -0.0625174 -0.0388244 -0.0613841 -0.0503487 -0.0736115 -0.0613841 -0.092004 -0.0736115 -0.104622 -0.0503487 -0.0736115 -0.0625174 -0.0864093 -0.0736115 -0.104622 -0.0864093 -0.117835 -0.0328794 -0.0618901 -0.0404621 -0.0714259 -0.0618901 -0.0923615 -0.0714259 -0.104498 -0.0404621 -0.0714259 -0.04906 -0.0817037 -0.0714259 -0.104498 -0.0817037 -0.117181 -0.0923615 -0.124849 -0.104498 -0.140148 -0.124849 -0.158146 -0.140148 -0.176741 -0.104498 -0.140148 -0.117181 -0.155738 -0.140148 -0.176741 -0.155738 -0.195159 -0.04906 -0.0817037 -0.0585233 -0.0925632 -0.0817037 -0.117181 -0.0925632 -0.13027 -0.0585233 -0.0925632 -0.0689086 -0.104205 -0.0925632 -0.13027 -0.104205 -0.144052 -0.117181 -0.155738 -0.13027 -0.171443 -0.155738 -0.195159 -0.171443 -0.213267 -0.13027 -0.171443 -0.144052 -0.187585 -0.171443 -0.213267 -0.187585 -0.231273 -0.158146 -0.187105 -0.176741 -0.208599 -0.187105 -0.205285 -0.208599 -0.228735 -0.176741 -0.208599 -0.195159 -0.229364 -0.208599 -0.228735 -0.229364 -0.250969 -0.205285 -0.209296 -0.228735 -0.233135 -0.209296 -0.199848 -0.233135 -0.222032 -0.228735 -0.233135 -0.250969 -0.255581 -0.233135 -0.222032 -0.255581 -0.242782 -0.195159 -0.229364 -0.213267 -0.249251 -0.229364 -0.250969 -0.249251 -0.272002 -0.213267 -0.249251 -0.231273 -0.268347 -0.249251 -0.272002 -0.268347 -0.291656 -0.250969 -0.255581 -0.272002 -0.276722 -0.255581 -0.242782 -0.276722 -0.262448 -0.272002 -0.276722 -0.291656 -0.296321 -0.276722 -0.262448 -0.296321 -0.280695 -0.0689086 -0.104205 -0.0800706 -0.116578 -0.104205 -0.144052 -0.116578 -0.158462 -0.0800706 -0.116578 -0.092004 -0.129669 -0.116578 -0.158462 -0.129669 -0.173572 -0.144052 -0.187585 -0.158462 -0.204145 -0.187585 -0.231273 -0.204145 -0.249121 -0.158462 -0.204145 -0.173572 -0.22108 -0.204145 -0.249121 -0.22108 -0.266798 -0.092004 -0.129669 -0.104622 -0.14354 -0.129669 -0.173572 -0.14354 -0.189468 -0.104622 -0.14354 -0.117835 -0.158086 -0.14354 -0.189468 -0.158086 -0.206008 -0.173572 -0.22108 -0.189468 -0.238595 -0.22108 -0.266798 -0.238595 -0.284482 -0.189468 -0.238595 -0.206008 -0.256482 -0.238595 -0.284482 -0.256482 -0.302028 -0.231273 -0.268347 -0.249121 -0.286617 -0.268347 -0.291656 -0.286617 -0.309874 -0.249121 -0.286617 -0.266798 -0.303908 -0.286617 -0.309874 -0.303908 -0.326535 -0.291656 -0.296321 -0.309874 -0.314291 -0.296321 -0.280695 -0.314291 -0.297465 -0.309874 -0.314291 -0.326535 -0.330411 -0.314291 -0.297465 -0.330411 -0.312625 -0.266798 -0.303908 -0.284482 -0.320494 -0.303908 -0.326535 -0.320494 -0.341764 -0.284482 -0.320494 -0.302028 -0.336302 -0.320494 -0.341764 -0.336302 -0.355696 -0.326535 -0.330411 -0.341764 -0.34476 -0.330411 -0.312625 -0.34476 -0.326007 -0.341764 -0.34476 -0.355696 -0.357535 -0.34476 -0.326007 -0.357535 -0.337938 0 0 -0.0260884 -0.0242563 0 0 -0.0242563 -0.0210625 -0.0260884 -0.0242563 -0.0521403 -0.0487324 -0.0242563 -0.0210625 -0.0487324 -0.0419701 0 0 -0.0210625 -0.0153642 0 0 -0.0153642 -0.00794494 -0.0210625 -0.0153642 -0.0419701 -0.0309467 -0.0153642 -0.00794494 -0.0309467 -0.0158176 -0.0521403 -0.0487324 -0.0780339 -0.0724382 -0.0487324 -0.0419701 -0.0724382 -0.0622569 -0.0780339 -0.0724382 -0.103583 -0.0955291 -0.0724382 -0.0622569 -0.0955291 -0.0816677 -0.0419701 -0.0309467 -0.0622569 -0.0456748 -0.0309467 -0.0158176 -0.0456748 -0.0236703 -0.0622569 -0.0456748 -0.0816677 -0.0595801 -0.0456748 -0.0236703 -0.0595801 -0.0307807 0 0 -0.00794494 0.000107557 0 0 0.000107557 0.00698254 -0.00794494 0.000107557 -0.0158176 -9.66118e-05 0.000107557 0.00698254 -9.66118e-05 0.0140486 0 0 0.00698254 0.0132168 0 0 0.0132168 0.0195883 0.00698254 0.0132168 0.0140486 0.0263144 0.0132168 0.0195883 0.0263144 0.0392065 -0.0158176 -9.66118e-05 -0.0236703 -0.000219954 -9.66118e-05 0.0140486 -0.000219954 0.0207864 -0.0236703 -0.000219954 -0.0307807 8.96617e-05 -0.000219954 0.0207864 8.96617e-05 0.0281638 0.0140486 0.0263144 0.0207864 0.0397861 0.0263144 0.0392065 0.0397861 0.0590171 0.0207864 0.0397861 0.0281638 0.053653 0.0397861 0.0590171 0.053653 0.0790677 -0.103583 -0.0955291 -0.128541 -0.117866 -0.0955291 -0.0816677 -0.117866 -0.0997545 -0.128541 -0.117866 -0.153009 -0.139222 -0.117866 -0.0997545 -0.139222 -0.116916 -0.0816677 -0.0595801 -0.0997545 -0.0725777 -0.0595801 -0.0307807 -0.0725777 -0.0373074 -0.0997545 -0.0725777 -0.116916 -0.0844179 -0.0725777 -0.0373074 -0.0844179 -0.0433137 -0.153009 -0.139222 -0.176893 -0.159596 -0.139222 -0.116916 -0.159596 -0.132647 -0.176893 -0.159596 -0.199848 -0.178999 -0.159596 -0.132647 -0.178999 -0.147185 -0.116916 -0.0844179 -0.132647 -0.0948727 -0.0844179 -0.0433137 -0.0948727 -0.0482245 -0.132647 -0.0948727 -0.147185 -0.104273 -0.0948727 -0.0482245 -0.104273 -0.0523116 -0.0307807 8.96617e-05 -0.0373074 0.000258429 8.96617e-05 0.0281638 0.000258429 0.0355615 -0.0373074 0.000258429 -0.0433137 0.000985157 0.000258429 0.0355615 0.000985157 0.0431649 0.0281638 0.053653 0.0355615 0.0678529 0.053653 0.0790677 0.0678529 0.0996187 0.0355615 0.0678529 0.0431649 0.0825102 0.0678529 0.0996187 0.0825102 0.119953 -0.0433137 0.000985157 -0.0482245 0.00212349 0.000985157 0.0431649 0.00212349 0.0510723 -0.0482245 0.00212349 -0.0523116 0.00376357 0.00212349 0.0510723 0.00376357 0.0593369 0.0431649 0.0825102 0.0510723 0.0972042 0.0825102 0.119953 0.0972042 0.140169 0.0510723 0.0972042 0.0593369 0.112148 0.0972042 0.140169 0.112148 0.160092 0 0 0.0195883 0.0262319 0 0 0.0262319 0.0309417 0.0195883 0.0262319 0.0392065 0.052212 0.0262319 0.0309417 0.052212 0.0614631 0 0 0.0309417 0.0312151 0 0 0.0312151 0.027465 0.0309417 0.0312151 0.0614631 0.0622875 0.0312151 0.027465 0.0622875 0.0546577 0.0392065 0.052212 0.0590171 0.0782058 0.052212 0.0614631 0.0782058 0.0911106 0.0590171 0.0782058 0.0790677 0.10339 0.0782058 0.0911106 0.10339 0.119514 0.0614631 0.0622875 0.0911106 0.0918786 0.0622875 0.0546577 0.0918786 0.0808314 0.0911106 0.0918786 0.119514 0.119972 0.0918786 0.0808314 0.119972 0.106091 0 0 0.027465 0.0219616 0 0 0.0219616 0.018217 0.027465 0.0219616 0.0546577 0.0442775 0.0219616 0.018217 0.0442775 0.0359962 0 0 0.018217 0.0157058 0 0 0.0157058 0.0139128 0.018217 0.0157058 0.0359962 0.0315326 0.0157058 0.0139128 0.0315326 0.0270919 0.0546577 0.0442775 0.0808314 0.0658434 0.0442775 0.0359962 0.0658434 0.0542399 0.0808314 0.0658434 0.106091 0.0868106 0.0658434 0.0542399 0.0868106 0.0717425 0.0359962 0.0315326 0.0542399 0.0469741 0.0315326 0.0270919 0.0469741 0.0402866 0.0542399 0.0469741 0.0717425 0.0616026 0.0469741 0.0402866 0.0616026 0.0523726 0.0790677 0.10339 0.0996187 0.128524 0.10339 0.119514 0.128524 0.146586 0.0996187 0.128524 0.119953 0.152639 0.128524 0.146586 0.152639 0.171747 0.119514 0.119972 0.146586 0.1463 0.119972 0.106091 0.1463 0.129536 0.146586 0.1463 0.171747 0.170485 0.1463 0.129536 0.170485 0.151565 0.119953 0.152639 0.140169 0.175583 0.152639 0.171747 0.175583 0.194815 0.140169 0.175583 0.160092 0.197434 0.175583 0.194815 0.197434 0.215883 0.171747 0.170485 0.194815 0.192095 0.170485 0.151565 0.192095 0.171485 0.194815 0.192095 0.215883 0.211506 0.192095 0.171485 0.211506 0.189471 0.106091 0.0868106 0.129536 0.107193 0.0868106 0.0717425 0.107193 0.0886607 0.129536 0.107193 0.151565 0.126381 0.107193 0.0886607 0.126381 0.104933 0.0717425 0.0616026 0.0886607 0.0756247 0.0616026 0.0523726 0.0756247 0.0628209 0.0886607 0.0756247 0.104933 0.088396 0.0756247 0.0628209 0.088396 0.0723442 0.151565 0.126381 0.171485 0.144383 0.126381 0.104933 0.144383 0.120176 0.171485 0.144383 0.189471 0.160913 0.144383 0.120176 0.160913 0.134249 0.104933 0.088396 0.120176 0.10017 0.088396 0.0723442 0.10017 0.0805288 0.120176 0.10017 0.134249 0.110747 0.10017 0.0805288 0.110747 0.0876189 -0.199848 -0.178999 -0.222032 -0.197418 -0.178999 -0.147185 -0.197418 -0.160521 -0.222032 -0.197418 -0.242782 -0.21447 -0.197418 -0.160521 -0.21447 -0.17244 -0.147185 -0.104273 -0.160521 -0.112225 -0.104273 -0.0523116 -0.112225 -0.0551219 -0.160521 -0.112225 -0.17244 -0.118812 -0.112225 -0.0551219 -0.118812 -0.05669 -0.242782 -0.21447 -0.262448 -0.230494 -0.21447 -0.17244 -0.230494 -0.183327 -0.262448 -0.230494 -0.280695 -0.245475 -0.230494 -0.183327 -0.245475 -0.193302 -0.17244 -0.118812 -0.183327 -0.124095 -0.118812 -0.05669 -0.124095 -0.0569372 -0.183327 -0.124095 -0.193302 -0.12858 -0.124095 -0.0569372 -0.12858 -0.0562573 -0.0523116 0.00376357 -0.0551219 0.00633463 0.00376357 0.0593369 0.00633463 0.0680315 -0.0551219 0.00633463 -0.05669 0.00984008 0.00633463 0.0680315 0.00984008 0.0772268 0.0593369 0.112148 0.0680315 0.126975 0.112148 0.160092 0.126975 0.179272 0.0680315 0.126975 0.0772268 0.141761 0.126975 0.179272 0.141761 0.197561 -0.05669 0.00984008 -0.0569372 0.0144776 0.00984008 0.0772268 0.0144776 0.0868729 -0.0569372 0.0144776 -0.0562573 0.0197739 0.0144776 0.0868729 0.0197739 0.096772 0.0772268 0.141761 0.0868729 0.156108 0.141761 0.197561 0.156108 0.214537 0.0868729 0.156108 0.096772 0.169794 0.156108 0.214537 0.169794 0.230078 -0.280695 -0.245475 -0.297465 -0.259298 -0.245475 -0.193302 -0.259298 -0.202367 -0.297465 -0.259298 -0.312625 -0.271897 -0.259298 -0.202367 -0.271897 -0.210604 -0.193302 -0.12858 -0.202367 -0.132133 -0.12858 -0.0562573 -0.132133 -0.0546856 -0.202367 -0.132133 -0.210604 -0.134961 -0.132133 -0.0546856 -0.134961 -0.0523385 -0.312625 -0.271897 -0.326007 -0.283158 -0.271897 -0.210604 -0.283158 -0.217962 -0.326007 -0.283158 -0.337938 -0.29333 -0.283158 -0.217962 -0.29333 -0.224738 -0.210604 -0.134961 -0.217962 -0.137328 -0.134961 -0.0523385 -0.137328 -0.0496881 -0.217962 -0.137328 -0.224738 -0.139446 -0.137328 -0.0496881 -0.139446 -0.0470038 -0.0562573 0.0197739 -0.0546856 0.025832 0.0197739 0.096772 0.025832 0.10666 -0.0546856 0.025832 -0.0523385 0.0325099 0.025832 0.10666 0.0325099 0.116654 0.096772 0.169794 0.10666 0.182609 0.169794 0.230078 0.182609 0.243759 0.10666 0.182609 0.116654 0.194508 0.182609 0.243759 0.194508 0.255743 -0.0523385 0.0325099 -0.0496881 0.0392951 0.0325099 0.116654 0.0392951 0.126326 -0.0496881 0.0392951 -0.0470038 0.0458994 0.0392951 0.126326 0.0458994 0.135343 0.116654 0.194508 0.126326 0.205427 0.194508 0.255743 0.205427 0.266077 0.126326 0.205427 0.135343 0.215006 0.205427 0.266077 0.215006 0.274626 0.160092 0.197434 0.179272 0.217717 0.197434 0.215883 0.217717 0.234921 0.179272 0.217717 0.197561 0.236371 0.217717 0.234921 0.236371 0.251575 0.215883 0.211506 0.234921 0.22877 0.211506 0.189471 0.22877 0.205803 0.234921 0.22877 0.251575 0.24365 0.22877 0.205803 0.24365 0.219814 0.197561 0.236371 0.214537 0.253039 0.236371 0.251575 0.253039 0.266169 0.214537 0.253039 0.230078 0.26768 0.253039 0.266169 0.26768 0.278597 0.251575 0.24365 0.266169 0.256402 0.24365 0.219814 0.256402 0.231996 0.266169 0.256402 0.278597 0.267233 0.256402 0.231996 0.267233 0.242397 0.189471 0.160913 0.205803 0.176076 0.160913 0.134249 0.176076 0.146934 0.205803 0.176076 0.219814 0.189444 0.176076 0.146934 0.189444 0.158044 0.134249 0.110747 0.146934 0.119791 0.110747 0.0876189 0.119791 0.093203 0.146934 0.119791 0.158044 0.127555 0.119791 0.093203 0.127555 0.0978107 0.219814 0.189444 0.231996 0.200794 0.189444 0.158044 0.200794 0.167428 0.231996 0.200794 0.242397 0.210743 0.200794 0.167428 0.210743 0.175335 0.158044 0.127555 0.167428 0.133825 0.127555 0.0978107 0.133825 0.101469 0.167428 0.133825 0.175335 0.138904 0.133825 0.101469 0.138904 0.10397 0.230078 0.26768 0.243759 0.280202 0.26768 0.278597 0.280202 0.28893 0.243759 0.280202 0.255743 0.290496 0.280202 0.28893 0.290496 0.297206 0.278597 0.267233 0.28893 0.2762 0.267233 0.242397 0.2762 0.250934 0.28893 0.2762 0.297206 0.283229 0.2762 0.250934 0.283229 0.257758 0.255743 0.290496 0.266077 0.298992 0.290496 0.297206 0.298992 0.303781 0.266077 0.298992 0.274626 0.305621 0.298992 0.303781 0.305621 0.308846 0.297206 0.283229 0.303781 0.288827 0.283229 0.257758 0.288827 0.263062 0.303781 0.288827 0.308846 0.29304 0.288827 0.263062 0.29304 0.267066 0.242397 0.210743 0.250934 0.218739 0.210743 0.175335 0.218739 0.181832 0.250934 0.218739 0.257758 0.225177 0.218739 0.181832 0.225177 0.186979 0.175335 0.138904 0.181832 0.143151 0.138904 0.10397 0.143151 0.106307 0.181832 0.143151 0.186979 0.146385 0.143151 0.106307 0.146385 0.107687 0.257758 0.225177 0.263062 0.230082 0.225177 0.186979 0.230082 0.19094 0.263062 0.230082 0.267066 0.233814 0.230082 0.19094 0.233814 0.194149 0.186979 0.1