<?xml version="1.0" ?> 
<!-- 
# vtk DataFile Version 3.0
#This file was generated by the deal.II library on 21:43:51 at 2021/4/29
-->
<VTKFile type="UnstructuredGrid" version="0.1" byte_order="LittleEndian">
<UnstructuredGrid>
<Piece NumberOfPoints="65536" NumberOfCells="16384" >
  <Points>
    <DataArray type="Float32" NumberOfComponents="3" format="ascii">
-1 -1 0
-0.984375 -1 0
-1 -0.984375 0
-0.984375 -0.984375 0
-0.984375 -1 0
-0.96875 -1 0
-0.984375 -0.984375 0
-0.96875 -0.984375 0
-1 -0.984375 0
-0.984375 -0.984375 0
-1 -0.96875 0
-0.984375 -0.96875 0
-0.984375 -0.984375 0
-0.96875 -0.984375 0
-0.984375 -0.96875 0
-0.96875 -0.96875 0
-0.96875 -1 0
-0.953125 -1 0
-0.96875 -0.984375 0
-0.953125 -0.984375 0
-0.953125 -1 0
-0.9375 -1 0
-0.953125 -0.984375 0
-0.9375 -0.984375 0
-0.96875 -0.984375 0
-0.953125 -0.984375 0
-0.96875 -0.96875 0
-0.953125 -0.96875 0
-0.953125 -0.984375 0
-0.9375 -0.984375 0
-0.953125 -0.96875 0
-0.9375 -0.96875 0
-1 -0.96875 0
-0.984375 -0.96875 0
-1 -0.953125 0
-0.984375 -0.953125 0
-0.984375 -0.96875 0
-0.96875 -0.96875 0
-0.984375 -0.953125 0
-0.96875 -0.953125 0
-1 -0.953125 0
-0.984375 -0.953125 0
-1 -0.9375 0
-0.984375 -0.9375 0
-0.984375 -0.953125 0
-0.96875 -0.953125 0
-0.984375 -0.9375 0
-0.96875 -0.9375 0
-0.96875 -0.96875 0
-0.953125 -0.96875 0
-0.96875 -0.953125 0
-0.953125 -0.953125 0
-0.953125 -0.96875 0
-0.9375 -0.96875 0
-0.953125 -0.953125 0
-0.9375 -0.953125 0
-0.96875 -0.953125 0
-0.953125 -0.953125 0
-0.96875 -0.9375 0
-0.953125 -0.9375 0
-0.953125 -0.953125 0
-0.9375 -0.953125 0
-0.953125 -0.9375 0
-0.9375 -0.9375 0
-0.9375 -1 0
-0.921875 -1 0
-0.9375 -0.984375 0
-0.921875 -0.984375 0
-0.921875 -1 0
-0.90625 -1 0
-0.921875 -0.984375 0
-0.90625 -0.984375 0
-0.9375 -0.984375 0
-0.921875 -0.984375 0
-0.9375 -0.96875 0
-0.921875 -0.96875 0
-0.921875 -0.984375 0
-0.90625 -0.984375 0
-0.921875 -0.96875 0
-0.90625 -0.96875 0
-0.90625 -1 0
-0.890625 -1 0
-0.90625 -0.984375 0
-0.890625 -0.984375 0
-0.890625 -1 0
-0.875 -1 0
-0.890625 -0.984375 0
-0.875 -0.984375 0
-0.90625 -0.984375 0
-0.890625 -0.984375 0
-0.90625 -0.96875 0
-0.890625 -0.96875 0
-0.890625 -0.984375 0
-0.875 -0.984375 0
-0.890625 -0.96875 0
-0.875 -0.96875 0
-0.9375 -0.96875 0
-0.921875 -0.96875 0
-0.9375 -0.953125 0
-0.921875 -0.953125 0
-0.921875 -0.96875 0
-0.90625 -0.96875 0
-0.921875 -0.953125 0
-0.90625 -0.953125 0
-0.9375 -0.953125 0
-0.921875 -0.953125 0
-0.9375 -0.9375 0
-0.921875 -0.9375 0
-0.921875 -0.953125 0
-0.90625 -0.953125 0
-0.921875 -0.9375 0
-0.90625 -0.9375 0
-0.90625 -0.96875 0
-0.890625 -0.96875 0
-0.90625 -0.953125 0
-0.890625 -0.953125 0
-0.890625 -0.96875 0
-0.875 -0.96875 0
-0.890625 -0.953125 0
-0.875 -0.953125 0
-0.90625 -0.953125 0
-0.890625 -0.953125 0
-0.90625 -0.9375 0
-0.890625 -0.9375 0
-0.890625 -0.953125 0
-0.875 -0.953125 0
-0.890625 -0.9375 0
-0.875 -0.9375 0
-1 -0.9375 0
-0.984375 -0.9375 0
-1 -0.921875 0
-0.984375 -0.921875 0
-0.984375 -0.9375 0
-0.96875 -0.9375 0
-0.984375 -0.921875 0
-0.96875 -0.921875 0
-1 -0.921875 0
-0.984375 -0.921875 0
-1 -0.90625 0
-0.984375 -0.90625 0
-0.984375 -0.921875 0
-0.96875 -0.921875 0
-0.984375 -0.90625 0
-0.96875 -0.90625 0
-0.96875 -0.9375 0
-0.953125 -0.9375 0
-0.96875 -0.921875 0
-0.953125 -0.921875 0
-0.953125 -0.9375 0
-0.9375 -0.9375 0
-0.953125 -0.921875 0
-0.9375 -0.921875 0
-0.96875 -0.921875 0
-0.953125 -0.921875 0
-0.96875 -0.90625 0
-0.953125 -0.90625 0
-0.953125 -0.921875 0
-0.9375 -0.921875 0
-0.953125 -0.90625 0
-0.9375 -0.90625 0
-1 -0.90625 0
-0.984375 -0.90625 0
-1 -0.890625 0
-0.984375 -0.890625 0
-0.984375 -0.90625 0
-0.96875 -0.90625 0
-0.984375 -0.890625 0
-0.96875 -0.890625 0
-1 -0.890625 0
-0.984375 -0.890625 0
-1 -0.875 0
-0.984375 -0.875 0
-0.984375 -0.890625 0
-0.96875 -0.890625 0
-0.984375 -0.875 0
-0.96875 -0.875 0
-0.96875 -0.90625 0
-0.953125 -0.90625 0
-0.96875 -0.890625 0
-0.953125 -0.890625 0
-0.953125 -0.90625 0
-0.9375 -0.90625 0
-0.953125 -0.890625 0
-0.9375 -0.890625 0
-0.96875 -0.890625 0
-0.953125 -0.890625 0
-0.96875 -0.875 0
-0.953125 -0.875 0
-0.953125 -0.890625 0
-0.9375 -0.890625 0
-0.953125 -0.875 0
-0.9375 -0.875 0
-0.9375 -0.9375 0
-0.921875 -0.9375 0
-0.9375 -0.921875 0
-0.921875 -0.921875 0
-0.921875 -0.9375 0
-0.90625 -0.9375 0
-0.921875 -0.921875 0
-0.90625 -0.921875 0
-0.9375 -0.921875 0
-0.921875 -0.921875 0
-0.9375 -0.90625 0
-0.921875 -0.90625 0
-0.921875 -0.921875 0
-0.90625 -0.921875 0
-0.921875 -0.90625 0
-0.90625 -0.90625 0
-0.90625 -0.9375 0
-0.890625 -0.9375 0
-0.90625 -0.921875 0
-0.890625 -0.921875 0
-0.890625 -0.9375 0
-0.875 -0.9375 0
-0.890625 -0.921875 0
-0.875 -0.921875 0
-0.90625 -0.921875 0
-0.890625 -0.921875 0
-0.90625 -0.90625 0
-0.890625 -0.90625 0
-0.890625 -0.921875 0
-0.875 -0.921875 0
-0.890625 -0.90625 0
-0.875 -0.90625 0
-0.9375 -0.90625 0
-0.921875 -0.90625 0
-0.9375 -0.890625 0
-0.921875 -0.890625 0
-0.921875 -0.90625 0
-0.90625 -0.90625 0
-0.921875 -0.890625 0
-0.90625 -0.890625 0
-0.9375 -0.890625 0
-0.921875 -0.890625 0
-0.9375 -0.875 0
-0.921875 -0.875 0
-0.921875 -0.890625 0
-0.90625 -0.890625 0
-0.921875 -0.875 0
-0.90625 -0.875 0
-0.90625 -0.90625 0
-0.890625 -0.90625 0
-0.90625 -0.890625 0
-0.890625 -0.890625 0
-0.890625 -0.90625 0
-0.875 -0.90625 0
-0.890625 -0.890625 0
-0.875 -0.890625 0
-0.90625 -0.890625 0
-0.890625 -0.890625 0
-0.90625 -0.875 0
-0.890625 -0.875 0
-0.890625 -0.890625 0
-0.875 -0.890625 0
-0.890625 -0.875 0
-0.875 -0.875 0
-0.875 -1 0
-0.859375 -1 0
-0.875 -0.984375 0
-0.859375 -0.984375 0
-0.859375 -1 0
-0.84375 -1 0
-0.859375 -0.984375 0
-0.84375 -0.984375 0
-0.875 -0.984375 0
-0.859375 -0.984375 0
-0.875 -0.96875 0
-0.859375 -0.96875 0
-0.859375 -0.984375 0
-0.84375 -0.984375 0
-0.859375 -0.96875 0
-0.84375 -0.96875 0
-0.84375 -1 0
-0.828125 -1 0
-0.84375 -0.984375 0
-0.828125 -0.984375 0
-0.828125 -1 0
-0.8125 -1 0
-0.828125 -0.984375 0
-0.8125 -0.984375 0
-0.84375 -0.984375 0
-0.828125 -0.984375 0
-0.84375 -0.96875 0
-0.828125 -0.96875 0
-0.828125 -0.984375 0
-0.8125 -0.984375 0
-0.828125 -0.96875 0
-0.8125 -0.96875 0
-0.875 -0.96875 0
-0.859375 -0.96875 0
-0.875 -0.953125 0
-0.859375 -0.953125 0
-0.859375 -0.96875 0
-0.84375 -0.96875 0
-0.859375 -0.953125 0
-0.84375 -0.953125 0
-0.875 -0.953125 0
-0.859375 -0.953125 0
-0.875 -0.9375 0
-0.859375 -0.9375 0
-0.859375 -0.953125 0
-0.84375 -0.953125 0
-0.859375 -0.9375 0
-0.84375 -0.9375 0
-0.84375 -0.96875 0
-0.828125 -0.96875 0
-0.84375 -0.953125 0
-0.828125 -0.953125 0
-0.828125 -0.96875 0
-0.8125 -0.96875 0
-0.828125 -0.953125 0
-0.8125 -0.953125 0
-0.84375 -0.953125 0
-0.828125 -0.953125 0
-0.84375 -0.9375 0
-0.828125 -0.9375 0
-0.828125 -0.953125 0
-0.8125 -0.953125 0
-0.828125 -0.9375 0
-0.8125 -0.9375 0
-0.8125 -1 0
-0.796875 -1 0
-0.8125 -0.984375 0
-0.796875 -0.984375 0
-0.796875 -1 0
-0.78125 -1 0
-0.796875 -0.984375 0
-0.78125 -0.984375 0
-0.8125 -0.984375 0
-0.796875 -0.984375 0
-0.8125 -0.96875 0
-0.796875 -0.96875 0
-0.796875 -0.984375 0
-0.78125 -0.984375 0
-0.796875 -0.96875 0
-0.78125 -0.96875 0
-0.78125 -1 0
-0.765625 -1 0
-0.78125 -0.984375 0
-0.765625 -0.984375 0
-0.765625 -1 0
-0.75 -1 0
-0.765625 -0.984375 0
-0.75 -0.984375 0
-0.78125 -0.984375 0
-0.765625 -0.984375 0
-0.78125 -0.96875 0
-0.765625 -0.96875 0
-0.765625 -0.984375 0
-0.75 -0.984375 0
-0.765625 -0.96875 0
-0.75 -0.96875 0
-0.8125 -0.96875 0
-0.796875 -0.96875 0
-0.8125 -0.953125 0
-0.796875 -0.953125 0
-0.796875 -0.96875 0
-0.78125 -0.96875 0
-0.796875 -0.953125 0
-0.78125 -0.953125 0
-0.8125 -0.953125 0
-0.796875 -0.953125 0
-0.8125 -0.9375 0
-0.796875 -0.9375 0
-0.796875 -0.953125 0
-0.78125 -0.953125 0
-0.796875 -0.9375 0
-0.78125 -0.9375 0
-0.78125 -0.96875 0
-0.765625 -0.96875 0
-0.78125 -0.953125 0
-0.765625 -0.953125 0
-0.765625 -0.96875 0
-0.75 -0.96875 0
-0.765625 -0.953125 0
-0.75 -0.953125 0
-0.78125 -0.953125 0
-0.765625 -0.953125 0
-0.78125 -0.9375 0
-0.765625 -0.9375 0
-0.765625 -0.953125 0
-0.75 -0.953125 0
-0.765625 -0.9375 0
-0.75 -0.9375 0
-0.875 -0.9375 0
-0.859375 -0.9375 0
-0.875 -0.921875 0
-0.859375 -0.921875 0
-0.859375 -0.9375 0
-0.84375 -0.9375 0
-0.859375 -0.921875 0
-0.84375 -0.921875 0
-0.875 -0.921875 0
-0.859375 -0.921875 0
-0.875 -0.90625 0
-0.859375 -0.90625 0
-0.859375 -0.921875 0
-0.84375 -0.921875 0
-0.859375 -0.90625 0
-0.84375 -0.90625 0
-0.84375 -0.9375 0
-0.828125 -0.9375 0
-0.84375 -0.921875 0
-0.828125 -0.921875 0
-0.828125 -0.9375 0
-0.8125 -0.9375 0
-0.828125 -0.921875 0
-0.8125 -0.921875 0
-0.84375 -0.921875 0
-0.828125 -0.921875 0
-0.84375 -0.90625 0
-0.828125 -0.90625 0
-0.828125 -0.921875 0
-0.8125 -0.921875 0
-0.828125 -0.90625 0
-0.8125 -0.90625 0
-0.875 -0.90625 0
-0.859375 -0.90625 0
-0.875 -0.890625 0
-0.859375 -0.890625 0
-0.859375 -0.90625 0
-0.84375 -0.90625 0
-0.859375 -0.890625 0
-0.84375 -0.890625 0
-0.875 -0.890625 0
-0.859375 -0.890625 0
-0.875 -0.875 0
-0.859375 -0.875 0
-0.859375 -0.890625 0
-0.84375 -0.890625 0
-0.859375 -0.875 0
-0.84375 -0.875 0
-0.84375 -0.90625 0
-0.828125 -0.90625 0
-0.84375 -0.890625 0
-0.828125 -0.890625 0
-0.828125 -0.90625 0
-0.8125 -0.90625 0
-0.828125 -0.890625 0
-0.8125 -0.890625 0
-0.84375 -0.890625 0
-0.828125 -0.890625 0
-0.84375 -0.875 0
-0.828125 -0.875 0
-0.828125 -0.890625 0
-0.8125 -0.890625 0
-0.828125 -0.875 0
-0.8125 -0.875 0
-0.8125 -0.9375 0
-0.796875 -0.9375 0
-0.8125 -0.921875 0
-0.796875 -0.921875 0
-0.796875 -0.9375 0
-0.78125 -0.9375 0
-0.796875 -0.921875 0
-0.78125 -0.921875 0
-0.8125 -0.921875 0
-0.796875 -0.921875 0
-0.8125 -0.90625 0
-0.796875 -0.90625 0
-0.796875 -0.921875 0
-0.78125 -0.921875 0
-0.796875 -0.90625 0
-0.78125 -0.90625 0
-0.78125 -0.9375 0
-0.765625 -0.9375 0
-0.78125 -0.921875 0
-0.765625 -0.921875 0
-0.765625 -0.9375 0
-0.75 -0.9375 0
-0.765625 -0.921875 0
-0.75 -0.921875 0
-0.78125 -0.921875 0
-0.765625 -0.921875 0
-0.78125 -0.90625 0
-0.765625 -0.90625 0
-0.765625 -0.921875 0
-0.75 -0.921875 0
-0.765625 -0.90625 0
-0.75 -0.90625 0
-0.8125 -0.90625 0
-0.796875 -0.90625 0
-0.8125 -0.890625 0
-0.796875 -0.890625 0
-0.796875 -0.90625 0
[...]
  <PointData Scalars="scalars">
    <DataArray type="Float32" Name="U" format="ascii">
0 0 0 3.29827e-06 0 0 3.29827e-06 6.63554e-06 0 3.29827e-06 0 -4.71984e-06 3.29827e-06 6.63554e-06 -4.71984e-06 -8.50336e-06 0 0 6.63554e-06 9.89434e-06 0 0 9.89434e-06 1.28277e-05 6.63554e-06 9.89434e-06 -8.50336e-06 -1.02314e-05 9.89434e-06 1.28277e-05 -1.02314e-05 -8.77812e-06 0 -4.71984e-06 0 -6.60995e-06 -4.71984e-06 -8.50336e-06 -6.60995e-06 -1.55265e-05 0 -6.60995e-06 0 -7.15739e-06 -6.60995e-06 -1.55265e-05 -7.15739e-06 -1.18664e-05 -8.50336e-06 -1.02314e-05 -1.55265e-05 -2.91897e-05 -1.02314e-05 -8.77812e-06 -2.91897e-05 -4.98427e-05 -1.55265e-05 -2.91897e-05 -1.18664e-05 -1.15704e-05 -2.91897e-05 -4.98427e-05 -1.15704e-05 -3.91427e-06 0 0 1.28277e-05 1.54563e-05 0 0 1.54563e-05 1.89165e-05 1.28277e-05 1.54563e-05 -8.77812e-06 -3.89544e-06 1.54563e-05 1.89165e-05 -3.89544e-06 2.04653e-06 0 0 1.89165e-05 2.63515e-05 0 0 2.63515e-05 4.25939e-05 1.89165e-05 2.63515e-05 2.04653e-06 2.20916e-06 2.63515e-05 4.25939e-05 2.20916e-06 -1.44648e-05 -8.77812e-06 -3.89544e-06 -4.98427e-05 -7.83041e-05 -3.89544e-06 2.04653e-06 -7.83041e-05 -0.000111686 -4.98427e-05 -7.83041e-05 -3.91427e-06 1.21249e-05 -7.83041e-05 -0.000111686 1.21249e-05 3.42678e-05 2.04653e-06 2.20916e-06 -0.000111686 -0.000140979 2.20916e-06 -1.44648e-05 -0.000140979 -0.000151094 -0.000111686 -0.000140979 3.42678e-05 5.49537e-05 -0.000140979 -0.000151094 5.49537e-05 6.16814e-05 0 -7.15739e-06 0 -1.03601e-06 -7.15739e-06 -1.18664e-05 -1.03601e-06 -3.16379e-06 0 -1.03601e-06 0 -1.2443e-05 -1.03601e-06 -3.16379e-06 -1.2443e-05 -2.51459e-05 -1.18664e-05 -1.15704e-05 -3.16379e-06 -7.51915e-06 -1.15704e-05 -3.91427e-06 -7.51915e-06 -1.5113e-05 -3.16379e-06 -7.51915e-06 -2.51459e-05 -3.85487e-05 -7.51915e-06 -1.5113e-05 -3.85487e-05 -5.34026e-05 0 -1.2443e-05 0 -1.9327e-05 -1.2443e-05 -2.51459e-05 -1.9327e-05 -3.82324e-05 0 -1.9327e-05 0 -5.99372e-06 -1.9327e-05 -3.82324e-05 -5.99372e-06 -1.21657e-05 -2.51459e-05 -3.85487e-05 -3.82324e-05 -5.58115e-05 -3.85487e-05 -5.34026e-05 -5.58115e-05 -7.03862e-05 -3.82324e-05 -5.58115e-05 -1.21657e-05 -1.93028e-05 -5.58115e-05 -7.03862e-05 -1.93028e-05 -2.94194e-05 -3.91427e-06 1.21249e-05 -1.5113e-05 -2.61424e-05 1.21249e-05 3.42678e-05 -2.61424e-05 -3.91331e-05 -1.5113e-05 -2.61424e-05 -5.34026e-05 -7.10517e-05 -2.61424e-05 -3.91331e-05 -7.10517e-05 -9.30094e-05 3.42678e-05 5.49537e-05 -3.91331e-05 -5.03293e-05 5.49537e-05 6.16814e-05 -5.03293e-05 -5.50742e-05 -3.91331e-05 -5.03293e-05 -9.30094e-05 -0.000120015 -5.03293e-05 -5.50742e-05 -0.000120015 -0.000149379 -5.34026e-05 -7.10517e-05 -7.03862e-05 -7.95137e-05 -7.10517e-05 -9.30094e-05 -7.95137e-05 -8.1225e-05 -7.03862e-05 -7.95137e-05 -2.94194e-05 -4.51596e-05 -7.95137e-05 -8.1225e-05 -4.51596e-05 -6.85901e-05 -9.30094e-05 -0.000120015 -8.1225e-05 -7.62398e-05 -0.000120015 -0.000149379 -7.62398e-05 -7.13065e-05 -8.1225e-05 -7.62398e-05 -6.85901e-05 -9.75997e-05 -7.62398e-05 -7.13065e-05 -9.75997e-05 -0.000123313 0 0 4.25939e-05 7.0717e-05 0 0 7.0717e-05 0.000104846 4.25939e-05 7.0717e-05 -1.44648e-05 -5.74978e-05 7.0717e-05 0.000104846 -5.74978e-05 -0.000122528 0 0 0.000104846 0.000123391 0 0 0.000123391 9.32644e-05 0.000104846 0.000123391 -0.000122528 -0.000179267 0.000123391 9.32644e-05 -0.000179267 -0.000177308 -1.44648e-05 -5.74978e-05 -0.000151094 -0.000127238 -5.74978e-05 -0.000122528 -0.000127238 -6.86521e-05 -0.000151094 -0.000127238 6.16814e-05 4.25446e-05 -0.000127238 -6.86521e-05 4.25446e-05 -2.88217e-06 -0.000122528 -0.000179267 -6.86521e-05 -1.95781e-06 -0.000179267 -0.000177308 -1.95781e-06 2.47523e-05 -6.86521e-05 -1.95781e-06 -2.88217e-06 -5.45795e-05 -1.95781e-06 2.47523e-05 -5.45795e-05 -7.94287e-05 0 0 9.32644e-05 -5.68283e-06 0 0 -5.68283e-06 -0.000146239 9.32644e-05 -5.68283e-06 -0.000177308 -8.4506e-05 -5.68283e-06 -0.000146239 -8.4506e-05 5.96741e-05 0 0 -0.000146239 -0.000249048 0 0 -0.000249048 -0.000243278 -0.000146239 -0.000249048 5.96741e-05 0.000140385 -0.000249048 -0.000243278 0.000140385 6.73543e-05 -0.000177308 -8.4506e-05 2.47523e-05 -1.89229e-05 -8.4506e-05 5.96741e-05 -1.89229e-05 -9.43766e-05 2.47523e-05 -1.89229e-05 -7.94287e-05 -6.18413e-05 -1.89229e-05 -9.43766e-05 -6.18413e-05 -3.61114e-05 5.96741e-05 0.000140385 -9.43766e-05 -9.79009e-05 0.000140385 6.73543e-05 -9.79009e-05 3.34146e-05 -9.43766e-05 -9.79009e-05 -3.61114e-05 -7.11657e-05 -9.79009e-05 3.34146e-05 -7.11657e-05 -0.000190688 6.16814e-05 4.25446e-05 -5.50742e-05 -5.16331e-05 4.25446e-05 -2.88217e-06 -5.16331e-05 -4.63451e-05 -5.50742e-05 -5.16331e-05 -0.000149379 -0.00017326 -5.16331e-05 -4.63451e-05 -0.00017326 -0.000179825 -2.88217e-06 -5.45795e-05 -4.63451e-05 -5.37871e-05 -5.45795e-05 -7.94287e-05 -5.37871e-05 -8.66233e-05 -4.63451e-05 -5.37871e-05 -0.000179825 -0.000162708 -5.37871e-05 -8.66233e-05 -0.000162708 -0.000132666 -0.000149379 -0.00017326 -7.13065e-05 -7.90302e-05 -0.00017326 -0.000179825 -7.90302e-05 -0.00011147 -7.13065e-05 -7.90302e-05 -0.000123313 -0.000130829 -7.90302e-05 -0.00011147 -0.000130829 -0.000109815 -0.000179825 -0.000162708 -0.00011147 -0.000163816 -0.000162708 -0.000132666 -0.000163816 -0.000203993 -0.00011147 -0.000163816 -0.000109815 -7.21322e-05 -0.000163816 -0.000203993 -7.21322e-05 -5.97939e-05 -7.94287e-05 -6.18413e-05 -8.66233e-05 -0.00013868 -6.18413e-05 -3.61114e-05 -0.00013868 -0.000181702 -8.66233e-05 -0.00013868 -0.000132666 -0.000118434 -0.00013868 -0.000181702 -0.000118434 -0.00013801 -3.61114e-05 -7.11657e-05 -0.000181702 -0.000192673 -7.11657e-05 -0.000190688 -0.000192673 -0.00018825 -0.000181702 -0.000192673 -0.00013801 -0.000161677 -0.000192673 -0.00018825 -0.000161677 -0.00012512 -0.000132666 -0.000118434 -0.000203993 -0.000186534 -0.000118434 -0.00013801 -0.000186534 -0.000106092 -0.000203993 -0.000186534 -5.97939e-05 -0.000120646 -0.000186534 -0.000106092 -0.000120646 -0.000248137 -0.00013801 -0.000161677 -0.000106092 -3.58298e-05 -0.000161677 -0.00012512 -3.58298e-05 -7.84225e-05 -0.000106092 -3.58298e-05 -0.000248137 -0.000354291 -3.58298e-05 -7.84225e-05 -0.000354291 -0.000338576 0 -5.99372e-06 0 -2.75568e-05 -5.99372e-06 -1.21657e-05 -2.75568e-05 -5.41605e-05 0 -2.75568e-05 0 -2.39654e-05 -2.75568e-05 -5.41605e-05 -2.39654e-05 -4.96293e-05 -1.21657e-05 -1.93028e-05 -5.41605e-05 -7.84543e-05 -1.93028e-05 -2.94194e-05 -7.84543e-05 -9.76375e-05 -5.41605e-05 -7.84543e-05 -4.96293e-05 -7.87387e-05 -7.84543e-05 -9.76375e-05 -7.87387e-05 -0.000114192 0 -2.39654e-05 0 -4.37309e-05 -2.39654e-05 -4.96293e-05 -4.37309e-05 -8.5641e-05 0 -4.37309e-05 0 -6.71215e-05 -4.37309e-05 -8.5641e-05 -6.71215e-05 -0.000134427 -4.96293e-05 -7.87387e-05 -8.5641e-05 -0.000123841 -7.87387e-05 -0.000114192 -0.000123841 -0.000156949 -8.5641e-05 -0.000123841 -0.000134427 -0.000203192 -0.000123841 -0.000156949 -0.000203192 -0.000270575 -2.94194e-05 -4.51596e-05 -9.76375e-05 -0.000109247 -4.51596e-05 -6.85901e-05 -0.000109247 -0.000111353 -9.76375e-05 -0.000109247 -0.000114192 -0.000157342 -0.000109247 -0.000111353 -0.000157342 -0.00020887 -6.85901e-05 -9.75997e-05 -0.000111353 -0.000108056 -9.75997e-05 -0.000123313 -0.000108056 -0.000109174 -0.000111353 -0.000108056 -0.00020887 -0.000262397 -0.000108056 -0.000109174 -0.000262397 -0.000308779 -0.000114192 -0.000157342 -0.000156949 -0.000184877 -0.000157342 -0.00020887 -0.000184877 -0.000210264 -0.000156949 -0.000184877 -0.000270575 -0.000336089 -0.000184877 -0.000210264 -0.000336089 -0.000390564 -0.00020887 -0.000262397 -0.000210264 -0.0002401 -0.000262397 -0.000308779 -0.0002401 -0.00028226 -0.000210264 -0.0002401 -0.000390564 -0.000429765 -0.0002401 -0.00028226 -0.000429765 -0.000443748 0 -6.71215e-05 0 -7.46402e-05 -6.71215e-05 -0.000134427 -7.46402e-05 -0.000148882 0 -7.46402e-05 0 -0.000123883 -7.46402e-05 -0.000148882 -0.000123883 -0.000247159 -0.000134427 -0.000203192 -0.000148882 -0.00021983 -0.000203192 -0.000270575 -0.00021983 -0.000292285 -0.000148882 -0.00021983 -0.000247159 -0.000370387 -0.00021983 -0.000292285 -0.000370387 -0.000489492 0 -0.000123883 0 -0.00018322 -0.000123883 -0.000247159 -0.00018322 -0.000363645 0 -0.00018322 0 -0.000243237 -0.00018322 -0.000363645 -0.000243237 -0.000489672 -0.000247159 -0.000370387 -0.000363645 -0.000545081 -0.000370387 -0.000489492 -0.000545081 -0.000719904 -0.000363645 -0.000545081 -0.000489672 -0.000725545 -0.000545081 -0.000719904 -0.000725545 -0.000969801 -0.000270575 -0.000336089 -0.000292285 -0.000363517 -0.000336089 -0.000390564 -0.000363517 -0.000446548 -0.000292285 -0.000363517 -0.000489492 -0.000604997 -0.000363517 -0.000446548 -0.000604997 -0.000706695 -0.000390564 -0.000429765 -0.000446548 -0.00053712 -0.000429765 -0.000443748 -0.00053712 -0.000647586 -0.000446548 -0.00053712 -0.000706695 -0.000800258 -0.00053712 -0.000647586 -0.000800258 -0.000877237 -0.000489492 -0.000604997 -0.000719904 -0.000899001 -0.000604997 -0.000706695 -0.000899001 -0.00107184 -0.000719904 -0.000899001 -0.000969801 -0.00118976 -0.000899001 -0.00107184 -0.00118976 -0.00142144 -0.000706695 -0.000800258 -0.00107184 -0.00125021 -0.000800258 -0.000877237 -0.00125021 -0.00141527 -0.00107184 -0.00125021 -0.00142144 -0.00161571 -0.00125021 -0.00141527 -0.00161571 -0.00183342 -0.000123313 -0.000130829 -0.000109174 -0.000131067 -0.000130829 -0.000109815 -0.000131067 -0.000181705 -0.000109174 -0.000131067 -0.000308779 -0.00033358 -0.000131067 -0.000181705 -0.00033358 -0.000335893 -0.000109815 -7.21322e-05 -0.000181705 -0.0002493 -7.21322e-05 -5.97939e-05 -0.0002493 -0.000295366 -0.000181705 -0.0002493 -0.000335893 -0.000327565 -0.0002493 -0.000295366 -0.000327565 -0.000340047 -0.000308779 -0.00033358 -0.00028226 -0.000342782 -0.00033358 -0.000335893 -0.000342782 -0.000411176 -0.00028226 -0.000342782 -0.000443748 -0.000440791 -0.000342782 -0.000411176 -0.000440791 -0.000436476 -0.000335893 -0.000327565 -0.000411176 -0.000468517 -0.000327565 -0.000340047 -0.000468517 -0.000488975 -0.000411176 -0.000468517 -0.000436476 -0.000461934 -0.000468517 -0.000488975 -0.000461934 -0.000526813 -5.97939e-05 -0.000120646 -0.000295366 -0.000287468 -0.000120646 -0.000248137 -0.000287468 -0.000242846 -0.000295366 -0.000287468 -0.000340047 -0.000381177 -0.000287468 -0.000242846 -0.000381177 -0.000426452 -0.000248137 -0.000354291 -0.000242846 -0.000236555 -0.000354291 -0.000338576 -0.000236555 -0.000322918 -0.000242846 -0.000236555 -0.000426452 -0.000424673 -0.000236555 -0.000322918 -0.000424673 -0.000387234 -0.000340047 -0.000381177 -0.000488975 -0.000487611 -0.000381177 -0.000426452 -0.000487611 -0.000494837 -0.000488975 -0.000487611 -0.000526813 -0.000600467 -0.000487611 -0.000494837 -0.000600467 -0.000634841 -0.000426452 -0.000424673 -0.000494837 -0.000541904 -0.000424673 -0.000387234 -0.000541904 -0.000559029 -0.000494837 -0.000541904 -0.000634841 -0.000614207 -0.000541904 -0.000559029 -0.000614207 -0.000634874 -0.000443748 -0.000440791 -0.000647586 -0.000751274 -0.000440791 -0.000436476 -0.000751274 -0.000838972 -0.000647586 -0.000751274 -0.000877237 -0.000969942 -0.000751274 -0.000838972 -0.000969942 -0.00107934 -0.000436476 -0.000461934 -0.000838972 -0.000866176 -0.000461934 -0.000526813 -0.000866176 -0.000857934 -0.000838972 -0.000866176 -0.00107934 -0.00124961 -0.000866176 -0.000857934 -0.00124961 -0.00142162 -0.000877237 -0.000969942 -0.00141527 -0.00156223 -0.000969942 -0.00107934 -0.00156223 -0.00167063 -0.00141527 -0.00156223 -0.00183342 -0.00201546 -0.00156223 -0.00167063 -0.00201546 -0.0022357 -0.00107934 -0.00124961 -0.00167063 -0.00173764 -0.00124961 -0.00142162 -0.00173764 -0.00180891 -0.00167063 -0.00173764 -0.0022357 -0.00239894 -0.00173764 -0.00180891 -0.00239894 -0.00254322 -0.000526813 -0.000600467 -0.000857934 -0.000843957 -0.000600467 -0.000634841 -0.000843957 -0.000907056 -0.000857934 -0.000843957 -0.00142162 -0.00158448 -0.000843957 -0.000907056 -0.00158448 -0.00163305 -0.000634841 -0.000614207 -0.000907056 -0.00103149 -0.000614207 -0.000634874 -0.00103149 -0.0011493 -0.000907056 -0.00103149 -0.00163305 -0.00165154 -0.00103149 -0.0011493 -0.00165154 -0.00163774 -0.00142162 -0.00158448 -0.00180891 -0.00189634 -0.00158448 -0.00163305 -0.00189634 -0.00205699 -0.00180891 -0.00189634 -0.00254322 -0.00257455 -0.00189634 -0.00205699 -0.00257455 -0.00258624 -0.00163305 -0.00165154 -0.00205699 -0.00214593 -0.00165154 -0.00163774 -0.00214593 -0.00220677 -0.00205699 -0.00214593 -0.00258624 -0.00265615 -0.00214593 -0.00220677 -0.00265615 -0.00282043 0 0 -0.000243278 -0.000153935 0 0 -0.000153935 -9.35015e-05 -0.000243278 -0.000153935 6.73543e-05 -9.06604e-05 -0.000153935 -9.35015e-05 -9.06604e-05 -0.000134366 0 0 -9.35015e-05 -0.000106671 0 0 -0.000106671 -6.12499e-05 -9.35015e-05 -0.000106671 -0.000134366 5.60414e-06 -0.000106671 -6.12499e-05 5.60414e-06 9.62488e-05 6.73543e-05 -9.06604e-05 3.34146e-05 0.000197182 -9.06604e-05 -0.000134366 0.000197182 0.000179487 3.34146e-05 0.000197182 -0.000190688 -0.000306717 0.000197182 0.000179487 -0.000306717 -0.000289274 -0.000134366 5.60414e-06 0.000179487 -7.57849e-05 5.60414e-06 9.62488e-05 -7.57849e-05 -0.000317768 0.000179487 -7.57849e-05 -0.000289274 -0.000136934 -7.57849e-05 -0.000317768 -0.000136934 -1.16787e-05 0 0 -6.12499e-05 0.00016381 0 0 0.00016381 0.000381719 -6.12499e-05 0.00016381 9.62488e-05 -9.62495e-05 0.00016381 0.000381719 -9.62495e-05 -0.000346068 0 0 0.000381719 0.000261195 0 0 0.000261195 -0.000107813 0.000381719 0.000261195 -0.000346068 -0.000208812 0.000261195 -0.000107813 -0.000208812 0.000170482 9.62488e-05 -9.62495e-05 -0.000317768 -0.000293926 -9.62495e-05 -0.000346068 -0.000293926 -0.000156747 -0.000317768 -0.000293926 -1.16787e-05 -2.74033e-05 -0.000293926 -0.000156747 -2.74033e-05 -0.000101612 -0.000346068 -0.000208812 -0.000156747 -0.000233178 -0.000208812 0.000170482 -0.000233178 -0.000396635 -0.000156747 -0.000233178 -0.000101612 -0.00013814 -0.000233178 -0.000396635 -0.00013814 -0.000192467 -0.000190688 -0.000306717 -0.00018825 -0.000208195 -0.000306717 -0.000289274 -0.000208195 -0.000242974 -0.00018825 -0.000208195 -0.00012512 -2.55899e-05 -0.000208195 -0.000242974 -2.55899e-05 1.28472e-05 -0.000289274 -0.000136934 -0.000242974 -0.000223049 -0.000136934 -1.16787e-05 -0.000223049 -0.000136096 -0.000242974 -0.000223049 1.28472e-05 -0.000126677 -0.000223049 -0.000136096 -0.000126677 -0.000326299 -0.00012512 -2.55899e-05 -7.84225e-05 -0.000220833 -2.55899e-05 1.28472e-05 -0.000220833 -0.000291284 -7.84225e-05 -0.000220833 -0.000338576 -0.000233236 -0.000220833 -0.000291284 -0.000233236 -0.000200417 1.28472e-05 -0.000126677 -0.000291284 -0.000169098 -0.000126677 -0.000326299 -0.000169098 -3.0054e-05 -0.000291284 -0.000169098 -0.000200417 -0.000324872 -0.000169098 -3.0054e-05 -0.000324872 -0.000446362 -1.16787e-05 -2.74033e-05 -0.000136096 -8.99165e-05 -2.74033e-05 -0.000101612 -8.99165e-05 -0.000119666 -0.000136096 -8.99165e-05 -0.000326299 -0.000319925 -8.99165e-05 -0.000119666 -0.000319925 -0.000135803 -0.000101612 -0.00013814 -0.000119666 -6.59454e-05 -0.00013814 -0.000192467 -6.59454e-05 9.0254e-05 -0.000119666 -6.59454e-05 -0.000135803 -0.000128976 -6.59454e-05 9.0254e-05 -0.000128976 -0.000340524 -0.000326299 -0.000319925 -3.0054e-05 -0.000153552 -0.000319925 -0.000135803 -0.000153552 -0.00044986 -3.0054e-05 -0.000153552 -0.000446362 -0.000404876 -0.000153552 -0.00044986 -0.000404876 -0.000315503 -0.000135803 -0.000128976 -0.00044986 -0.000552847 -0.000128976 -0.000340524 -0.000552847 -0.000442374 -0.00044986 -0.000552847 -0.000315503 -0.000350737 -0.000552847 -0.000442374 -0.000350737 -0.000409655 0 0 -0.000107813 -0.000240727 0 0 -0.000240727 -9.06046e-05 -0.000107813 -0.000240727 0.000170482 0.000142543 -0.000240727 -9.06046e-05 0.000142543 -0.000268097 0 0 -9.06046e-05 -0.000165074 0 0 -0.000165074 -0.000429641 -9.06046e-05 -0.000165074 -0.000268097 -0.000288778 -0.000165074 -0.000429641 -0.000288778 6.07764e-05 0.000170482 0.000142543 -0.000396635 -0.00022274 0.000142543 -0.000268097 -0.00022274 0.000157733 -0.000396635 -0.00022274 -0.000192467 -0.000267333 -0.00022274 0.000157733 -0.000267333 -0.000219163 -0.000268097 -0.000288778 0.000157733 0.000187606 -0.000288778 6.07764e-05 0.000187606 -6.50699e-05 0.000157733 0.000187606 -0.000219163 -9.35855e-05 0.000187606 -6.50699e-05 -9.35855e-05 -7.82709e-05 0 0 -0.000429641 -0.000224866 0 0 -0.000224866 0.000248134 -0.000429641 -0.000224866 6.07764e-05 -7.45337e-05 -0.000224866 0.000248134 -7.45337e-05 -0.000451833 0 0 0.000248134 0.000117042 0 0 0.000117042 -0.000203164 0.000248134 0.000117042 -0.000451833 -8.86329e-05 0.000117042 -0.000203164 -8.86329e-05 0.000392872 6.07764e-05 -7.45337e-05 -6.50699e-05 -8.76273e-05 -7.45337e-05 -0.000451833 -8.76273e-05 -3.36237e-05 -6.50699e-05 -8.76273e-05 -7.82709e-05 -6.82492e-05 -8.76273e-05 -3.36237e-05 -6.82492e-05 1.04956e-06 -0.000451833 -8.86329e-05 -3.36237e-05 -0.000267583 -8.86329e-05 0.000392872 -0.000267583 -0.000408827 -3.36237e-05 -0.000267583 1.04956e-06 -0.000266071 -0.000267583 -0.000408827 -0.000266071 -0.000759411 -0.000192467 -0.000267333 9.0254e-05 9.10405e-06 -0.000267333 -0.000219163 9.10405e-06 -0.000389019 9.0254e-05 9.10405e-06 -0.000340524 -0.000331686 9.10405e-06 -0.000389019 -0.000331686 -9.53649e-05 -0.000219163 -9.35855e-05 -0.000389019 -0.000555468 -9.35855e-05 -7.82709e-05 -0.000555468 -0.000324184 -0.000389019 -0.000555468 -9.53649e-05 -0.000217547 -0.000555468 -0.000324184 -0.000217547 -0.000650645 -0.000340524 -0.000331686 -0.000442374 -0.000439588 -0.000331686 -9.53649e-05 -0.000439588 -0.000477085 -0.000442374 -0.000439588 -0.000409655 -0.000384267 -0.000439588 -0.000477085 -0.000384267 -0.000413759 -9.53649e-05 -0.000217547 -0.000477085 -0.000294894 -0.000217547 -0.000650645 -0.000294894 -9.05026e-05 -0.000477085 -0.000294894 -0.000413759 -0.000379218 -0.000294894 -9.05026e-05 -0.000379218 -0.000147848 -7.82709e-05 -6.82492e-05 -0.000324184 -0.000326198 -6.82492e-05 1.04956e-06 -0.000326198 -0.000589308 -0.000324184 -0.000326198 -0.000650645 -0.00068432 -0.000326198 -0.000589308 -0.00068432 -0.000345782 1.04956e-06 -0.000266071 -0.000589308 -0.0003321 -0.000266071 -0.000759411 -0.0003321 0.000114979 -0.000589308 -0.0003321 -0.000345782 -0.000229138 -0.0003321 0.000114979 -0.000229138 -9.3338e-05 -0.000650645 -0.00068432 -9.05026e-05 -0.000107408 -0.00068432 -0.000345782 -0.000107408 -0.000188602 -9.05026e-05 -0.000107408 -0.000147848 -4.73637e-05 -0.000107408 -0.000188602 -4.73637e-05 -0.0003139 -0.000345782 -0.000229138 -0.000188602 -0.000285717 -0.000229138 -9.3338e-05 -0.000285717 -0.000612687 -0.000188602 -0.000285717 -0.0003139 -0.000605039 -0.000285717 -0.000612687 -0.000605039 -0.000681819 -0.000338576 -0.000233236 -0.000322918 -0.000443384 -0.000233236 -0.000200417 -0.000443384 -0.000489535 -0.000322918 -0.000443384 -0.000387234 -0.000384649 -0.000443384 -0.000489535 -0.000384649 -0.00044434 -0.000200417 -0.000324872 -0.000489535 -0.000454267 -0.000324872 -0.000446362 -0.000454267 -0.000452348 -0.000489535 -0.000454267 -0.00044434 -0.000462179 -0.000454267 -0.000452348 -0.000462179 -0.000360361 -0.000387234 -0.000384649 -0.000559029 -0.000484612 -0.000384649 -0.00044434 -0.000484612 -0.000351937 -0.000559029 -0.000484612 -0.000634874 -0.000745339 -0.000484612 -0.000351937 -0.000745339 -0.0009062 -0.00044434 -0.000462179 -0.000351937 -0.000353096 -0.000462179 -0.000360361 -0.000353096 -0.000514722 -0.000351937 -0.000353096 -0.0009062 -0.00092943 -0.000353096 -0.000514722 -0.00092943 -0.000897037 -0.000446362 -0.000404876 -0.000452348 -0.000462566 -0.000404876 -0.000315503 -0.000462566 -0.000365159 -0.000452348 -0.000462566 -0.000360361 -0.000304494 -0.000462566 -0.000365159 -0.000304494 -0.000409232 -0.000315503 -0.000350737 -0.000365159 -0.000218079 -0.000350737 -0.000409655 -0.000218079 -0.000230071 -0.000365159 -0.000218079 -0.000409232 -0.000510077 -0.000218079 -0.000230071 -0.000510077 -0.000421765 -0.000360361 -0.000304494 -0.000514722 -0.000638035 -0.000304494 -0.000409232 -0.000638035 -0.000648768 -0.000514722 -0.000638035 -0.000897037 -0.000931999 -0.