# vtk DataFile Version 3.0
#This file was generated by the deal.II library on 2021/4/23 at 0:45:43
ASCII
DATASET UNSTRUCTURED_GRID

FIELD FieldData 2
CYCLE 1 1 int
117
TIME 1 1 double
0.234
POINTS 5544 double
-1 -1 0
-0.75 -1 0
-1 -0.75 0
-0.75 -0.75 0
-0.75 -1 0
-0.5 -1 0
-0.75 -0.75 0
-0.5 -0.75 0
-1 -0.75 0
-0.75 -0.75 0
-1 -0.5 0
-0.75 -0.5 0
-0.75 -0.75 0
-0.5 -0.75 0
-0.75 -0.5 0
-0.5 -0.5 0
-0.5 -1 0
-0.25 -1 0
-0.5 -0.75 0
-0.25 -0.75 0
-0.25 -1 0
0 -1 0
-0.25 -0.75 0
0 -0.75 0
-0.5 -0.75 0
-0.25 -0.75 0
-0.5 -0.5 0
-0.25 -0.5 0
-1 -0.5 0
-0.75 -0.5 0
-1 -0.25 0
-0.75 -0.25 0
-0.75 -0.5 0
-0.5 -0.5 0
-0.75 -0.25 0
-0.5 -0.25 0
-1 -0.25 0
-0.75 -0.25 0
-1 0 0
-0.75 0 0
-0.75 -0.25 0
-0.5 -0.25 0
-0.75 0 0
-0.5 0 0
-0.5 -0.5 0
-0.25 -0.5 0
-0.5 -0.25 0
-0.25 -0.25 0
-0.5 -0.25 0
-0.25 -0.25 0
-0.5 0 0
-0.25 0 0
-1 0 0
-0.75 0 0
-1 0.25 0
-0.75 0.25 0
-0.75 0 0
-0.5 0 0
-0.75 0.25 0
-0.5 0.25 0
-1 0.25 0
-0.75 0.25 0
-1 0.5 0
-0.75 0.5 0
-0.5 0 0
-0.25 0 0
-0.5 0.25 0
-0.25 0.25 0
-1 0.5 0
-0.75 0.5 0
-1 0.75 0
-0.75 0.75 0
-1 0.75 0
-0.75 0.75 0
-1 1 0
-0.75 1 0
-0.25 -0.75 0
-0.125 -0.75 0
-0.25 -0.625 0
-0.125 -0.625 0
-0.125 -0.75 0
0 -0.75 0
-0.125 -0.625 0
0 -0.625 0
-0.25 -0.625 0
-0.125 -0.625 0
-0.25 -0.5 0
-0.125 -0.5 0
-0.125 -0.625 0
0 -0.625 0
-0.125 -0.5 0
0 -0.5 0
-0.25 -0.5 0
-0.125 -0.5 0
-0.25 -0.375 0
-0.125 -0.375 0
-0.125 -0.5 0
0 -0.5 0
-0.125 -0.375 0
0 -0.375 0
-0.25 -0.375 0
-0.125 -0.375 0
-0.25 -0.25 0
-0.125 -0.25 0
-0.125 -0.375 0
0 -0.375 0
-0.125 -0.25 0
0 -0.25 0
0 -0.75 0
0.125 -0.75 0
0 -0.625 0
0.125 -0.625 0
0 -1 0
0.125 -1 0
0 -0.875 0
0.125 -0.875 0
0.125 -1 0
0.25 -1 0
0.125 -0.875 0
0.25 -0.875 0
0 -0.875 0
0.125 -0.875 0
0 -0.75 0
0.125 -0.75 0
0.125 -0.875 0
0.25 -0.875 0
0.125 -0.75 0
0.25 -0.75 0
0.875 -1 0
1 -1 0
0.875 -0.875 0
1 -0.875 0
0.25 -1 0
0.375 -1 0
0.25 -0.875 0
0.375 -0.875 0
0.375 -1 0
0.5 -1 0
0.375 -0.875 0
0.5 -0.875 0
-0.25 -0.25 0
-0.125 -0.25 0
-0.25 -0.125 0
-0.125 -0.125 0
-0.125 -0.25 0
0 -0.25 0
-0.125 -0.125 0
0 -0.125 0
-0.25 -0.125 0
-0.125 -0.125 0
-0.25 0 0
-0.125 0 0
-0.125 -0.125 0
0 -0.125 0
-0.125 0 0
0 0 0
-0.75 0.25 0
-0.625 0.25 0
-0.75 0.375 0
-0.625 0.375 0
-0.625 0.25 0
-0.5 0.25 0
-0.625 0.375 0
-0.5 0.375 0
-0.75 0.375 0
-0.625 0.375 0
-0.75 0.5 0
-0.625 0.5 0
-0.625 0.375 0
-0.5 0.375 0
-0.625 0.5 0
-0.5 0.5 0
-0.25 0 0
-0.125 0 0
-0.25 0.125 0
-0.125 0.125 0
-0.125 0 0
0 0 0
-0.125 0.125 0
0 0.125 0
-0.25 0.125 0
-0.125 0.125 0
-0.25 0.25 0
-0.125 0.25 0
-0.125 0.125 0
0 0.125 0
-0.125 0.25 0
0 0.25 0
0 -0.125 0
0.125 -0.125 0
0 0 0
0.125 0 0
-0.25 0.25 0
-0.125 0.25 0
-0.25 0.375 0
-0.125 0.375 0
-0.125 0.25 0
0 0.25 0
-0.125 0.375 0
0 0.375 0
-0.25 0.375 0
-0.125 0.375 0
-0.25 0.5 0
-0.125 0.5 0
-0.125 0.375 0
0 0.375 0
-0.125 0.5 0
0 0.5 0
-0.5 0.25 0
-0.375 0.25 0
-0.5 0.375 0
-0.375 0.375 0
-0.375 0.25 0
-0.25 0.25 0
-0.375 0.375 0
-0.25 0.375 0
-0.5 0.375 0
-0.375 0.375 0
-0.5 0.5 0
-0.375 0.5 0
-0.375 0.375 0
-0.25 0.375 0
-0.375 0.5 0
-0.25 0.5 0
-0.75 0.5 0
-0.625 0.5 0
-0.75 0.625 0
-0.625 0.625 0
-0.625 0.5 0
-0.5 0.5 0
-0.625 0.625 0
-0.5 0.625 0
-0.75 0.625 0
-0.625 0.625 0
-0.75 0.75 0
-0.625 0.75 0
-0.625 0.625 0
-0.5 0.625 0
-0.625 0.75 0
-0.5 0.75 0
-0.75 0.75 0
-0.625 0.75 0
-0.75 0.875 0
-0.625 0.875 0
-0.625 0.75 0
-0.5 0.75 0
-0.625 0.875 0
-0.5 0.875 0
-0.75 0.875 0
-0.625 0.875 0
-0.75 1 0
-0.625 1 0
-0.625 0.875 0
-0.5 0.875 0
-0.625 1 0
-0.5 1 0
-0.5 0.5 0
-0.375 0.5 0
-0.5 0.625 0
-0.375 0.625 0
-0.375 0.5 0
-0.25 0.5 0
-0.375 0.625 0
-0.25 0.625 0
-0.5 0.625 0
-0.375 0.625 0
-0.5 0.75 0
-0.375 0.75 0
-0.375 0.625 0
-0.25 0.625 0
-0.375 0.75 0
-0.25 0.75 0
-0.25 0.5 0
-0.125 0.5 0
-0.25 0.625 0
-0.125 0.625 0
-0.125 0.5 0
0 0.5 0
-0.125 0.625 0
0 0.625 0
-0.25 0.625 0
-0.125 0.625 0
-0.25 0.75 0
-0.125 0.75 0
-0.125 0.625 0
0 0.625 0
-0.125 0.75 0
0 0.75 0
-0.5 0.75 0
-0.375 0.75 0
-0.5 0.875 0
-0.375 0.875 0
-0.375 0.75 0
-0.25 0.75 0
-0.375 0.875 0
-0.25 0.875 0
-0.5 0.875 0
-0.375 0.875 0
-0.5 1 0
-0.375 1 0
-0.375 0.875 0
-0.25 0.875 0
-0.375 1 0
-0.25 1 0
-0.25 0.75 0
-0.125 0.75 0
-0.25 0.875 0
-0.125 0.875 0
-0.125 0.75 0
0 0.75 0
-0.125 0.875 0
0 0.875 0
-0.25 0.875 0
-0.125 0.875 0
-0.25 1 0
-0.125 1 0
-0.125 0.875 0
0 0.875 0
-0.125 1 0
0 1 0
0.75 -0.875 0
0.8125 -0.875 0
0.75 -0.8125 0
0.8125 -0.8125 0
0.8125 -0.875 0
0.875 -0.875 0
0.8125 -0.8125 0
0.875 -0.8125 0
0.375 -0.75 0
0.4375 -0.75 0
0.375 -0.6875 0
0.4375 -0.6875 0
0.375 -0.6875 0
0.4375 -0.6875 0
0.375 -0.625 0
0.4375 -0.625 0
0.125 -0.75 0
0.1875 -0.75 0
0.125 -0.6875 0
0.1875 -0.6875 0
0.1875 -0.75 0
0.25 -0.75 0
0.1875 -0.6875 0
0.25 -0.6875 0
0.125 -0.6875 0
0.1875 -0.6875 0
0.125 -0.625 0
0.1875 -0.625 0
0.1875 -0.6875 0
0.25 -0.6875 0
0.1875 -0.625 0
0.25 -0.625 0
0.25 -0.625 0
0.3125 -0.625 0
0.25 -0.5625 0
0.3125 -0.5625 0
0.3125 -0.625 0
0.375 -0.625 0
0.3125 -0.5625 0
0.375 -0.5625 0
0.5 -0.875 0
0.5625 -0.875 0
0.5 -0.8125 0
0.5625 -0.8125 0
0.5625 -0.875 0
0.625 -0.875 0
0.5625 -0.8125 0
0.625 -0.8125 0
0.625 -0.875 0
0.6875 -0.875 0
0.625 -0.8125 0
0.6875 -0.8125 0
0.6875 -0.875 0
0.75 -0.875 0
0.6875 -0.8125 0
0.75 -0.8125 0
0.9375 -0.75 0
1 -0.75 0
0.9375 -0.6875 0
1 -0.6875 0
0.9375 -0.6875 0
1 -0.6875 0
0.9375 -0.625 0
1 -0.625 0
0.125 -0.1875 0
0.1875 -0.1875 0
0.125 -0.125 0
0.1875 -0.125 0
0.25 -0.0625 0
0.3125 -0.0625 0
0.25 0 0
0.3125 0 0
0.3125 -0.0625 0
0.375 -0.0625 0
0.3125 0 0
0.375 0 0
0 -0.625 0
0.0625 -0.625 0
0 -0.5625 0
0.0625 -0.5625 0
0.0625 -0.625 0
0.125 -0.625 0
0.0625 -0.5625 0
0.125 -0.5625 0
0 -0.5625 0
0.0625 -0.5625 0
0 -0.5 0
0.0625 -0.5 0
0.0625 -0.5625 0
0.125 -0.5625 0
0.0625 -0.5 0
0.125 -0.5 0
0.125 -0.625 0
0.1875 -0.625 0
0.125 -0.5625 0
0.1875 -0.5625 0
0.1875 -0.625 0
0.25 -0.625 0
0.1875 -0.5625 0
0.25 -0.5625 0
0.125 -0.5625 0
0.1875 -0.5625 0
0.125 -0.5 0
0.1875 -0.5 0
0.1875 -0.5625 0
0.25 -0.5625 0
0.1875 -0.5 0
0.25 -0.5 0
0 -0.5 0
0.0625 -0.5 0
0 -0.4375 0
0.0625 -0.4375 0
0.0625 -0.5 0
0.125 -0.5 0
0.0625 -0.4375 0
0.125 -0.4375 0
0 -0.4375 0
0.0625 -0.4375 0
0 -0.375 0
0.0625 -0.375 0
0.0625 -0.4375 0
0.125 -0.4375 0
0.0625 -0.375 0
0.125 -0.375 0
0.125 -0.5 0
0.1875 -0.5 0
0.125 -0.4375 0
0.1875 -0.4375 0
0.1875 -0.5 0
0.25 -0.5 0
0.1875 -0.4375 0
0.25 -0.4375 0
0.125 -0.4375 0
0.1875 -0.4375 0
0.125 -0.375 0
0.1875 -0.375 0
0.1875 -0.4375 0
0.25 -0.4375 0
0.1875 -0.375 0
0.25 -0.375 0
0 -0.375 0
0.0625 -0.375 0
0 -0.3125 0
0.0625 -0.3125 0
0.0625 -0.375 0
0.125 -0.375 0
0.0625 -0.3125 0
0.125 -0.3125 0
0 -0.3125 0
0.0625 -0.3125 0
0 -0.25 0
0.0625 -0.25 0
0.0625 -0.3125 0
0.125 -0.3125 0
0.0625 -0.25 0
0.125 -0.25 0
0.75 -1 0
0.8125 -1 0
0.75 -0.9375 0
0.8125 -0.9375 0
0.8125 -1 0
0.875 -1 0
0.8125 -0.9375 0
0.875 -0.9375 0
0.75 -0.9375 0
0.8125 -0.9375 0
0.75 -0.875 0
0.8125 -0.875 0
0.8125 -0.9375 0
0.875 -0.9375 0
0.8125 -0.875 0
0.875 -0.875 0
0.875 -0.875 0
0.9375 -0.875 0
0.875 -0.8125 0
0.9375 -0.8125 0
0.9375 -0.875 0
1 -0.875 0
0.9375 -0.8125 0
1 -0.8125 0
0.875 -0.8125 0
0.9375 -0.8125 0
0.875 -0.75 0
0.9375 -0.75 0
0.9375 -0.8125 0
1 -0.8125 0
0.9375 -0.75 0
1 -0.75 0
0.25 -0.875 0
0.3125 -0.875 0
0.25 -0.8125 0
0.3125 -0.8125 0
0.3125 -0.875 0
0.375 -0.875 0
0.3125 -0.8125 0
0.375 -0.8125 0
0.25 -0.8125 0
0.3125 -0.8125 0
0.25 -0.75 0
0.3125 -0.75 0
0.3125 -0.8125 0
0.375 -0.8125 0
0.3125 -0.75 0
0.375 -0.75 0
0.375 -0.875 0
0.4375 -0.875 0
0.375 -0.8125 0
0.4375 -0.8125 0
0.4375 -0.875 0
0.5 -0.875 0
0.4375 -0.8125 0
0.5 -0.8125 0
0.375 -0.8125 0
0.4375 -0.8125 0
0.375 -0.75 0
0.4375 -0.75 0
0.4375 -0.8125 0
0.5 -0.8125 0
0.4375 -0.75 0
0.5 -0.75 0
0.25 -0.75 0
0.3125 -0.75 0
0.25 -0.6875 0
0.3125 -0.6875 0
0.3125 -0.75 0
0.375 -0.75 0
0.3125 -0.6875 0
0.375 -0.6875 0
0.25 -0.6875 0
0.3125 -0.6875 0
0.25 -0.625 0
0.3125 -0.625 0
0.3125 -0.6875 0
0.375 -0.6875 0
0.3125 -0.625 0
0.375 -0.625 0
0.5 -1 0
0.5625 -1 0
0.5 -0.9375 0
0.5625 -0.9375 0
0.5625 -1 0
0.625 -1 0
0.5625 -0.9375 0
0.625 -0.9375 0
0.5 -0.9375 0
0.5625 -0.9375 0
0.5 -0.875 0
0.5625 -0.875 0
0.5625 -0.9375 0
0.625 -0.9375 0
0.5625 -0.875 0
0.625 -0.875 0
0.625 -1 0
0.6875 -1 0
0.625 -0.9375 0
0.6875 -0.9375 0
0.6875 -1 0
0.75 -1 0
0.6875 -0.9375 0
0.75 -0.9375 0
0.625 -0.9375 0
0.6875 -0.9375 0
0.625 -0.875 0
0.6875 -0.875 0
0.6875 -0.9375 0
0.75 -0.9375 0
0.6875 -0.875 0
0.75 -0.875 0
0 -0.25 0
0.0625 -0.25 0
0 -0.1875 0
0.0625 -0.1875 0
0.0625 -0.25 0
0.125 -0.25 0
0.0625 -0.1875 0
0.125 -0.1875 0
0 -0.1875 0
0.0625 -0.1875 0
0 -0.125 0
0.0625 -0.125 0
0.0625 -0.1875 0
0.125 -0.1875 0
0.0625 -0.125 0
0.125 -0.125 0
0.125 -0.125 0
0.1875 -0.125 0
0.125 -0.0625 0
0.1875 -0.0625 0
0.1875 -0.125 0
0.25 -0.125 0
0.1875 -0.0625 0
0.25 -0.0625 0
0.125 -0.0625 0
0.1875 -0.0625 0
0.125 0 0
0.1875 0 0
0.1875 -0.0625 0
0.25 -0.0625 0
0.1875 0 0
0.25 0 0
0.625 -0.75 0
0.6875 -0.75 0
0.625 -0.6875 0
0.6875 -0.6875 0
0.6875 -0.75 0
0.75 -0.75 0
0.6875 -0.6875 0
0.75 -0.6875 0
0.75 -0.75 0
0.8125 -0.75 0
0.75 -0.6875 0
0.8125 -0.6875 0
0.25 -0.375 0
0.3125 -0.375 0
0.25 -0.3125 0
0.3125 -0.3125 0
0.25 -0.3125 0
0.3125 -0.3125 0
0.25 -0.25 0
0.3125 -0.25 0
0.25 -0.25 0
0.3125 -0.25 0
0.25 -0.1875 0
0.3125 -0.1875 0
0.5 -0.6875 0
0.53125 -0.6875 0
0.5 -0.65625 0
0.53125 -0.65625 0
0.53125 -0.6875 0
0.5625 -0.6875 0
0.53125 -0.65625 0
0.5625 -0.65625 0
0.5 -0.65625 0
0.53125 -0.65625 0
0.5 -0.625 0
0.53125 -0.625 0
0.53125 -0.65625 0
0.5625 -0.65625 0
0.53125 -0.625 0
0.5625 -0.625 0
0.5625 -0.6875 0
0.59375 -0.6875 0
0.5625 -0.65625 0
0.59375 -0.65625 0
0.59375 -0.6875 0
0.625 -0.6875 0
0.59375 -0.65625 0
0.625 -0.65625 0
0.75 -0.8125 0
0.78125 -0.8125 0
0.75 -0.78125 0
0.78125 -0.78125 0
0.78125 -0.8125 0
0.8125 -0.8125 0
0.78125 -0.78125 0
0.8125 -0.78125 0
0.75 -0.78125 0
0.78125 -0.78125 0
0.75 -0.75 0
0.78125 -0.75 0
0.78125 -0.78125 0
0.8125 -0.78125 0
0.78125 -0.75 0
0.8125 -0.75 0
0.8125 -0.8125 0
0.84375 -0.8125 0
0.8125 -0.78125 0
0.84375 -0.78125 0
0.84375 -0.8125 0
0.875 -0.8125 0
0.84375 -0.78125 0
0.875 -0.78125 0
0.8125 -0.78125 0
0.84375 -0.78125 0
0.8125 -0.75 0
0.84375 -0.75 0
[...]
POINT_DATA 5544
SCALARS U double 1
LOOKUP_TABLE default
0 0 0 6.08887e-05 0 0 6.08887e-05 0.000122527 0 6.08887e-05 0 0.000154652 6.08887e-05 0.000122527 0.000154652 0.000276523 0 0 0.000122527 0.000178582 0 0 0.000178582 0.000260172 0.000122527 0.000178582 0.000276523 0.000350715 0 0.000154652 0 0.000340679 0.000154652 0.000276523 0.000340679 0.000553167 0 0.000340679 0 0.000672111 0.000340679 0.000553167 0.000672111 0.00102346 0.000276523 0.000350715 0.000553167 0.000539579 0.000553167 0.000539579 0.00102346 0.000816487 0 0.000672111 0 0.0010912 0.000672111 0.00102346 0.0010912 0.00163205 0 0.0010912 0 0.00127016 0.00102346 0.000816487 0.00163205 0.00121805 0 0.00127016 0 0.000895875 0 0.000895875 0 0 0.000178582 0.000219377 0.000264648 0.000305335 0.000219377 0.000260172 0.000305335 0.00038329 0.000264648 0.000305335 0.000350715 0.000387938 0.000305335 0.00038329 0.000387938 0.000489647 0.000350715 0.000387938 0.000445147 0.000450986 0.000387938 0.000489647 0.000450986 0.000546603 0.000445147 0.000450986 0.000539579 0.000492944 0.000450986 0.000546603 0.000492944 0.000529802 0.000260172 0.000376387 0.00038329 0.000600601 0 0 0.000130086 0.000183565 0 0 0.000183565 0.000261186 0.000130086 0.000183565 0.000260172 0.000376387 0.000183565 0.000261186 0.000376387 0.00061409 0 0 0.000373231 0 0 0 0.000261186 0.000393457 0 0 0.000393457 0.000547062 0.000539579 0.000492944 0.000678033 0.000492444 0.000492944 0.000529802 0.000492444 0.000386657 0.000678033 0.000492444 0.000816487 0.00051158 0.000492444 0.000386657 0.00051158 0 0.0010912 0.00136162 0.00118068 0.00162572 0.00136162 0.00163205 0.00162572 0.00180222 0.00118068 0.00162572 0.00127016 0.00167475 0.00162572 0.00180222 0.00167475 0.00187735 0.000816487 0.00051158 0.00101727 0.000564493 0.00051158 0 0.000564493 0 0.00101727 0.000564493 0.00121805 0.000666655 0.000564493 0 0.000666655 0 0.000386657 0.000536534 0 0 0.00121805 0.000666655 0.00134718 0.000748344 0.000666655 0 0.000748344 0 0.00134718 0.000748344 0.00139707 0.000767721 0.000748344 0 0.000767721 0 0.00163205 0.00142505 0.00180222 0.00172168 0.00142505 0.00121805 0.00172168 0.00134718 0.00180222 0.00172168 0.00187735 0.00178254 0.00172168 0.00134718 0.00178254 0.00139707 0.00127016 0.00167475 0.00108302 0.00153661 0.00167475 0.00187735 0.00153661 0.00171739 0.00108302 0.00153661 0.000895875 0.0011759 0.00153661 0.00171739 0.0011759 0.00132073 0.000895875 0.0011759 0.000447937 0.000642846 0.0011759 0.00132073 0.000642846 0.000719149 0.000447937 0.000642846 0 0 0.000642846 0.000719149 0 0 0.00187735 0.00178254 0.00171739 0.00162955 0.00178254 0.00139707 0.00162955 0.00127533 0.00171739 0.00162955 0.00132073 0.00125175 0.00162955 0.00127533 0.00125175 0.000979194 0.00139707 0.000767721 0.00127533 0.000701194 0.000767721 0 0.000701194 0 0.00127533 0.000701194 0.000979194 0.000538598 0.000701194 0 0.000538598 0 0.00132073 0.00125175 0.000719149 0.000681878 0.00125175 0.000979194 0.000681878 0.000533622 0.000719149 0.000681878 0 0 0.000681878 0.000533622 0 0 0.000979194 0.000538598 0.000533622 0.000293511 0.000538598 0 0.000293511 0 0.000533622 0.000293511 0 0 0.000293511 0 0 0 0.000627223 0.000523581 0.00114448 0.000973365 0.000523581 0.000373231 0.000973365 0.000721506 0.00104589 0.00132859 0.00158171 0.00205041 0.00158171 0.00205041 0.00223515 0.00305182 0.000376387 0.000495238 0.000488494 0.000646643 0.000495238 0.00061409 0.000646643 0.000860452 0.000488494 0.000646643 0.000600601 0.000826312 0.000646643 0.000860452 0.000826312 0.00113805 0.00113805 0.00162449 0.00145368 0.0021268 0.00162449 0.00223515 0.0021268 0.00308571 0.000547062 0.000622869 0.000995112 0.00112099 0.000622869 0.000668578 0.00112099 0.0012084 0.000668578 0.000663898 0.0012084 0.00121822 0.000663898 0.000627223 0.00121822 0.00114448 0.000652443 0 0.00112092 0 0.00112092 0 0.0019132 0 0.000753848 0.00114102 0.000536534 0.000844396 0.000700194 0.00115719 0 0 0.00115719 0.00194082 0 0 0.00038329 0.000491946 0.000436468 0.000553449 0.000491946 0.000600601 0.000553449 0.000721235 0.000436468 0.000553449 0.000489647 0.000620633 0.000553449 0.000721235 0.000620633 0.000826763 0.000600601 0.000826312 0.000721235 0.00101926 0.000826312 0.00113805 0.00101926 0.00145368 0.000721235 0.00101926 0.000826763 0.00121061 0.00101926 0.00145368 0.00121061 0.00177217 0.000489647 0.000620633 0.000518125 0.00067057 0.000620633 0.000826763 0.00067057 0.000905146 0.000518125 0.00067057 0.000546603 0.000700721 0.00067057 0.000905146 0.000700721 0.00095455 0.000826763 0.00121061 0.000905146 0.00135724 0.00121061 0.00177217 0.00135724 0.00203309 0.000905146 0.00135724 0.00095455 0.00145183 0.00135724 0.00203309 0.00145183 0.00221001 0.000546603 0.000700721 0.000538202 0.000692527 0.000700721 0.00095455 0.000692527 0.000955736 0.000538202 0.000692527 0.000529802 0.000650503 0.000692527 0.000955736 0.000650503 0.000900787 0 0 0.000270544 0.000232275 0 0 0.000232275 0.000186616 0.000270544 0.000232275 0.000627223 0.000523581 0.000232275 0.000186616 0.000523581 0.000373231 0.000373231 0.000186616 0.000721506 0.000373384 0.000186616 0 0.000373384 0 0.000721506 0.000373384 0.0012402 0.000652443 0.000373384 0 0.000652443 0 0.000261186 0.000327321 0.000437638 0.000542949 0.000327321 0.000393457 0.000542949 0.000677315 0.000437638 0.000542949 0.00061409 0.000811324 0.000542949 0.000677315 0.000811324 0.00104589 0.000393457 0.000470259 0.000677315 0.000830883 0.000470259 0.000547062 0.000830883 0.000995112 0.000677315 0.000830883 0.00104589 0.00132859 0.000830883 0.000995112 0.00132859 0.00160899 0.00061409 0.000811324 0.000860452 0.00117487 0.000811324 0.00104589 0.00117487 0.00158171 0.000860452 0.00117487 0.00113805 0.00162449 0.00117487 0.00158171 0.00162449 0.00223515 0 0 0.000273531 0.000281085 0 0 0.000281085 0.000292393 0.000273531 0.000281085 0.000547062 0.000622869 0.000281085 0.000292393 0.000622869 0.000668578 0 0 0.000292393 0.000289779 0 0 0.000289779 0.000270544 0.000292393 0.000289779 0.000668578 0.000663898 0.000289779 0.000270544 0.000663898 0.000627223 0.000529802 0.000650503 0.00045823 0.000562571 0.000650503 0.000900787 0.000562571 0.000753848 0.00045823 0.000562571 0.000386657 0.000461596 0.000562571 0.000753848 0.000461596 0.000536534 0.000536534 0.000844396 0.000268267 0.000436303 0.000844396 0.00133138 0.000436303 0.000700194 0.000268267 0.000436303 0 0 0.000436303 0.000700194 0 0 0.00204198 0.00209544 0.00337012 0.00349004 0.00209544 0.00198221 0.00349004 0.00333211 0.00198221 0.00169512 0.00333211 0.00287845 0.00221001 0.0034974 0.002275 0.00361608 0.002275 0.00361608 0.00214109 0.0034473 0.00214109 0.0034473 0.00182474 0.00297488 0.00256384 0.00281196 0.00323133 0.00351746 0.00281196 0.00305039 0.00351746 0.00382107 0.00323133 0.00351746 0.00392878 0.00441077 0.00351746 0.00382107 0.00441077 0.00474819 0.00305039 0.00322224 0.00382107 0.0040762 0.00322224 0.00337012 0.0040762 0.00424539 0.00114448 0.00105892 0.00153225 0.00142731 0.00105892 0.000973365 0.00142731 0.00130837 0.00153225 0.00142731 0.00198221 0.00183867 0.00142731 0.00130837 0.00183867 0.00169512 0.000973365 0.000847436 0.00130837 0.00114686 0.000847436 0.000721506 0.00114686 0.000980852 0.00130837 0.00114686 0.00169512 0.00148145 0.00114686 0.000980852 0.00148145 0.0012402 0.00337012 0.00343008 0.00424539 0.00437192 0.00343008 0.00349004 0.00437192 0.00439453 0.00349004 0.00341107 0.00439453 0.00436416 0.00341107 0.00333211 0.00436416 0.00421112 0.00392878 0.00441077 0.00487256 0.00537253 0.00441077 0.00474819 0.00537253 0.00597927 0.00487256 0.00537253 0.00584918 0.00666682 0.00537253 0.00597927 0.00666682 0.00730484 0.00584918 0.00666682 0.00715018 0.00809509 0.00715018 0.00809509 0.00850941 0.00995055 0.0131191 0.014125 0.0146219 0.0158731 0.00132859 0.00146879 0.0016895 0.00188224 0.00146879 0.00160899 0.00188224 0.00207492 0.0016895 0.00188224 0.00205041 0.00230989 0.00188224 0.00207492 0.00230989 0.00256384 0.00333211 0.00310528 0.00421112 0.00399907 0.00310528 0.00287845 0.00399907 0.00365906 0.00287845 0.0025158 0.00365906 0.00326003 0.0025158 0.00211546 0.00326003 0.00278914 0.0131283 0.0146219 0.0141425 0.0158809 0.0027363 0.0019132 0.00353078 0.00243649 0.0019132 0.000956601 0.00243649 0.00124816 0.000956601 0 0.00124816 0 0.00243649 0.00124816 0.00318102 0.00165023 0.00124816 0 0.00165023 0 0.0146219 0.0158731 0.0158809 0.0171755 0.0171755 0.0181449 0.0181512 0.0191532 0.00165023 0 0.00213279 0 0.00266273 0.00331046 0.00292162 0.00360502 0.00331046 0.00398786 0.00360502 0.00447959 0.00292162 0.00360502 0.00317 0.00391489 0.00360502 0.00447959 0.00391489 0.00482409 0.00317 0.00391489 0.00334573 0.00417651 0.00334573 0.00417651 0.0034974 0.00434837 0.00398786 0.00491468 0.00447959 0.00542411 0.00491468 0.00587516 0.00542411 0.00670376 0.00447959 0.00542411 0.00482409 0.00603955 0.00542411 0.00670376 0.00603955 0.00735074 0.00587516 0.00716286 0.00670376 0.00811815 0.00716286 0.00850941 0.00811815 0.00996182 0.00205041 0.00230989 0.00255112 0.00288566 0.00230989 0.00256384 0.00288566 0.00323133 0.00255112 0.00288566 0.00305182 0.00349094 0.00288566 0.00323133 0.00349094 0.00392878 0.0034974 0.00434837 0.00355674 0.00447809 0.00355674 0.00447809 0.00361608 0.00450007 0.0147365 0.0138675 0.0166117 0.0156749 0.0138675 0.0126761 0.0156749 0.0143294 0.0126761 0.0111252 0.0143294 0.0125992 0.00145368 0.00179024 0.00161292 0.00199599 0.00179024 0.0021268 0.00199599 0.00239757 0.00161292 0.00199599 0.00177217 0.00220491 0.00199599 0.00239757 0.00220491 0.00266273 0.00361608 0.00450007 0.00353169 0.00446666 0.00353169 0.00446666 0.0034473 0.00430725 0.0143294 0.0125992 0.0155605 0.0136821 0.0170271 0.0155605 0.0180356 0.0164919 0.0155605 0.0136821 0.0164919 0.0145108 0.00921137 0.00751075 0.0111252 0.00911737 0.00751075 0.0054271 0.00911737 0.00670559 0.0111252 0.00911737 0.0125992 0.0103743 0.00911737 0.00670559 0.0103743 0.00765002 0.0054271 0.00299093 0.00670559 0.00370305 0.00670559 0.00370305 0.00765002 0.00419695 0.00370305 0 0.00419695 0 0.0125992 0.0103743 0.0136821 0.0112601 0.0103743 0.00765002 0.0112601 0.00828744 0.0136821 0.0112601 0.0145108 0.011908 0.0112601 0.00828744 0.011908 0.0087535 0.00765002 0.00419695 0.00828744 0.00453622 0.00419695 0 0.00453622 0 0.00828744 0.00453622 0.0087535 0.00477264 0.00453622 0 0.00477264 0 0.0021268 0.00260626 0.00239757 0.00295338 0.00260626 0.00308571 0.00295338 0.00353806 0.00239757 0.00295338 0.00266273 0.00331046 0.00295338 0.00353806 0.00331046 0.00398786 0.0034473 0.00430725 0.00321109 0.00408927 0.00321109 0.00408927 0.00297488 0.0037404 0.00297488 0.0037404 0.00259892 0.00333199 0.00259892 0.00333199 0.00218463 0.00284967 0.00277631 0.00356579 0.00194082 0.00246078 0.00194082 0.00246078 0.000970412 0.00126037 0.00246078 0.0032025 0.00126037 0.00166102 0.000970412 0.00126037 0 0 0.00126037 0.00166102 0 0 0.00166102 0.00214212 0 0 0.00223515 0.00264348 0.00266043 0.003168 0.00264348 0.00305182 0.003168 0.0036932 0.00266043 0.003168 0.00308571 0.00370992 0.003168 0.0036932 0.00370992 0.00436457 0.00305182 0.00349094 0.0036932 0.00428072 0.00349094 0.00392878 0.00428072 0.00487256 0.0036932 0.00428072 0.00436457 0.00510727 0.00428072 0.00487256 0.00510727 0.00584918 0.00308571 0.00370992 0.00353806 0.00431059 0.00370992 0.00436457 0.00431059 0.00512066 0.00353806 0.00431059 0.00398786 0.00491468 0.00431059 0.00512066 0.00491468 0.00587516 0.00436457 0.00510727 0.00512066 0.0061223 0.00510727 0.00584918 0.0061223 0.00715018 0.00512066 0.0061223 0.00587516 0.00716286 0.0061223 0.00715018 0.00716286 0.00850941 0.000995112 0.00105805 0.00130205 0.00138887 0.00105805 0.00112099 0.00138887 0.00147969 0.00130205 0.00138887 0.00160899 0.00174622 0.00138887 0.00147969 0.00174622 0.00187563 0.0170887 0.015022 0.0173991 0.0152699 0.00112099 0.00116469 0.00147969 0.00154816 0.00116469 0.0012084 0.00154816 0.0015992 0.00147969 0.00154816 0.00187563 0.00196808 0.00154816 0.0015992 0.00196808 0.00204198 0.0012084 0.00121331 0.0015992 0.00161642 0.00121331 0.00121822 0.00161642 0.00162505 0.0015992 0.00161642 0.00204198 0.00206871 0.00161642 0.00162505 0.00206871 0.00209544 0.0208829 0.0201916 0.0209429 0.020167 0.0209429 0.020167 0.0205573 0.0198969 0.020167 0.0190584 0.0198969 0.0187114 0.0190422 0.0173991 0.0190584 0.0173752 0.0173991 0.0152699 0.0173752 0.0153245 0.0190584 0.0173752 0.0187114 0.0172227 0.0173752 0.0153245 0.0172227 0.0150407 0.0145108 0.011908 0.015022 0.0123139 0.011908 0.0087535 0.0123139 0.00903112 0.015022 0.0123139 0.0152699 0.0125504 0.0123139 0.00903112 0.0125504 0.00919822 0.0087535 0.00477264 0.00903112 0.00489834 0.00903112 0.00489834 0.00919822 0.00498506 0.0152699 0.0125504 0.0153245 0.0125252 0.0125504 0.00919822 0.0125252 0.00920891 0.0153245 0.0125252 0.0150407 0.0124879 0.00919822 0.00498506 0.00920891 0.00501397 0.0139036 0.0157093 0.0126996 0.014345 0.0126996 0.014345 0.0111491 0.0126172 0.0170421 0.0180481 0.0155768 0.0165035 0.014345 0.0155768 0.0126172 0.013696 0.0155768 0.0165035 0.013696 0.0145213 0.0208872 0.0209445 0.0201969 0.02017 0.0209445 0.0205573 0.02017 0.0198983 0.02017 0.0198983 0.0190623 0.0187135 0.0170972 0.017405 0.0150298 0.0152755 0.0190482 0.0190623 0.017405 0.0173793 0.0190623 0.0187135 0.0173793 0.0172254 0.017405 0.0173793 0.0152755 0.0153284 0.0173793 0.0172254 0.0153284 0.0150433 0.00923689 0.0111491 0.00753395 0.00913591 0.0111491 0.0126172 0.00913591 0.010389 0.00753395 0.00913591 0.00544294 0.00671857 0.00913591 0.010389 0.00671857 0.00766031 0.0126172 0.013696 0.010389 0.0112714 0.013696 0.0145213 0.0112714 0.0119165 0.010389 0.0112714 0.00766031 0.00829546 0.0112714 0.0119165 0.00829546 0.00875961 0.00544294 0.00671857 0.00299889 0.00370954 0.00671857 0.00766031 0.00370954 0.0042022 0.00370954 0.0042022 0 0 0.00766031 0.00829546 0.0042022 0.00454034 0.00829546 0.00875961 0.00454034 0.0047758 0.0042022 0.00454034 0 0 0.00454034 0.0047758 0 0 0.0145213 0.0150298 0.0119165 0.0123203 0.0150298 0.0152755 0.0123203 0.0125551 0.0119165 0.0123203 0.00875961 0.00903572 0.0123203 0.0125551 0.00903572 0.0092016 0.0152755 0.0153284 0.0125551 0.0125285 0.0153284 0.0150433 0.0125285 0.0124902 0.0125551 0.0125285 0.0092016 0.00921136 0.00875961 0.00903572 0.0047758 0.00490073 0.00903572 0.0092016 0.00490073 0.00498682 0.0092016 0.00921136 0.00498682 0.00501524 0.00121822 0.00118135 0.00162505 0.00158413 0.00118135 0.00114448 0.00158413 0.00153225 0.00162505 0.00158413 0.00209544 0.00203883 0.00158413 0.00153225 0.00203883 0.00198221 0.0012402 0.00094632 0.00166704 0.00128474 0.00094632 0.000652443 0.00128474 0.000886683 0.00166704 0.00128474 0.00211546 0.00163235 0.00128474 0.000886683 0.00163235 0.00112092 0.00211546 0.00163235 0.00278914 0.00215942 0.00163235 0.00112092 0.00215942 0.00151706 0.00278914 0.00215942 0.00350746 0.0027363 0.00215942 0.00151706 0.0027363 0.0019132 0.000900787 0.00111601 0.000827318 0.001037 0.00111601 0.00134388 0.001037 0.00125301 0.000827318 0.001037 0.000753848 0.000947433 0.001037 0.00125301 0.000947433 0.00114102 0.00134388 0.00171698 0.00125301 0.00159571 0.00171698 0.00214109 0.00159571 0.00198291 0.00125301 0.00159571 0.00114102 0.00145827 0.00159571 0.00198291 0.00145827 0.00182474 0.00114102 0.00145827 0.000992707 0.00127411 0.00145827 0.00182474 0.00127411 0.00159202 0.000992707 0.00127411 0.000844396 0.00108789 0.00127411 0.00159202 0.00108789 0.00133138 0.00133138 0.00174745 0.00101579 0.00134621 0.00174745 0.00218463 0.00134621 0.00168528 0.00101579 0.00134621 0.000700194 0.000928693 0.00134621 0.00168528 0.000928693 0.00115719 0.00218463 0.00284967 0.00168528 0.00220565 0.00284967 0.00355946 0.00220565 0.00277631 0.00168528 0.00220565 0.00115719 0.00154901 0.00220565 0.00277631 0.00154901 0.00194082 0.00095455 0.00120319 0.000955143 0.00119332 0.00120319 0.00145183 0.00119332 0.00145331 0.000955143 0.00119332 0.000955736 0.00118649 0.00119332 0.00145331 0.00118649 0.00143565 0.00145183 0.00183092 0.00145331 0.00182271 0.00183092 0.00221001 0.00182271 0.00224251 0.00145331 0.00182271 0.00143565 0.00182586 0.00182271 0.00224251 0.00182586 0.002275 0.000955736 0.00118649 0.000928261 0.00115741 0.00118649 0.00143565 0.00115741 0.00139897 0.000928261 0.00115741 0.000900787 0.00111601 0.00115741 0.00139897 0.00111601 0.00134388 0.00143565 0.00182586 0.00139897 0.00177931 0.00182586 0.002275 0.00177931 0.00220804 0.00139897 0.00177931 0.00134388 0.00171698 0.00177931 0.00220804 0.00171698 0.00214109 0.00160899 0.00174622 0.00207492 0.00225846 0.00174622 0.00187563 0.00225846 0.00243668 0.00207492 0.00225846 0.00256384 0.00281196 0.00225846 0.00243668 0.00281196 0.00305039 0.00187563 0.00196808 0.00243668 0.00257178 0.00196808 0.00204198 0.00257178 0.00270605 0.00243668 0.00257178 0.00305039 0.00322224 0.00257178 0.00270605 0.00322224 0.00337012 0.00474819 0.00505737 0.00597927 0.0063808 0.00505737 0.00533301 0.0063808 0.00674673 0.00597927 0.0063808 0.00730484 0.00782014 0.0063808 0.00674673 0.00782014 0.00828847 0.00533301 0.00545685 0.00674673 0.00691889 0.00545685 0.00555078 0.00691889 0.00704813 0.00674673 0.00691889 0.00828847 0.00850696 0.00691889 0.00704813 0.00850696 0.00868119 0.00555078 0.00546451 0.00704813 0.00695834 0.00546451 0.00534352 0.00695834 0.00682474 0.00704813 0.00695834 0.00868119 0.00858232 0.00695834 0.00682474 0.00858232 0.00844218 0.00169512 0.00148145 0.00228679 0.00198341 0.00148145 0.0012402 0.00198341 0.00166704 0.00228679 0.00198341 0.00287845 0.0025158 0.00198341 0.00166704 0.0025158 0.00211546 0.00534352 0.00502981 0.00682474 0.00644166 0.00502981 0.0046802 0.00644166 0.0060095 0.00682474 0.00644166 0.00844218 0.0079678 0.00644166 0.0060095 0.0079678 0.0074324 0.0046802 0.00411642 0.0060095 0.00531571 0.00411642 0.00350746 0.00531571 0.00456063 0.0060095 0.00531571 0.0074324 0.00659136 0.00531571 0.00456063 0.00659136 0.00566109 0.0074324 0.00659136 0.00944316 0.00844819 0.00659136 0.00566109 0.00844819 0.00735537 0.00944316 0.00844819 0.0116122 0.0104754 0.00844819 0.00735537 0.0104754 0.00921137 0.00177217 0.00220491 0.00190263 0.00239417 0.00220491 0.00266273 0.00239417 0.00292162 0.00190263 0.00239417 0.00203309 0.00257543 0.00239417 0.00292162 0.00257543 0.00317 0.00203309 0.00257543 0.00212155 0.00271942 0.00257543 0.00317 0.00271942 0.00334573 0.00212155 0.00271942 0.00221001 0.00285371 0.00271942 0.00334573 0.00285371 0.0034974 0.00482409 0.00603955 0.00513926 0.00644719 0.00603955 0.00735074 0.00644719 0.00787228 0.00513926 0.00644719 0.00542064 0.00681792 0.00644719 0.00787228 0.00681792 0.00834465 0.00542064 0.00681792 0.00554374 0.00699281 0.00681792 0.00834465 0.00699281 0.00856964 0.00554374 0.00699281 0.0056374 0.00712923 0.00699281 0.00856964 0.00712923 0.00875789 0.0056374 0.00712923 0.00555512 0.00703486 0.00712923 0.00875789 0.00703486 0.00863083 0.00555512 0.00703486 0.00543622 0.00689155 0.00703486 0.00863083 0.00689155 0.00844192 0.00182474 0.00239981 0.00159202 0.00208027 0.00239981 0.00297488 0.00208027 0.00259892 0.00159202 0.00208027 0.00133138 0.00174745 0.00208027 0.00259892 0.00174745 0.00218463 0.00543622 0.00689155 0.00511189 0.00650751 0.00689155 0.00844192 0.00650751 0.00799076 0.00511189 0.00650751 0.00475076 0.00607309 0.00650751 0.00799076 0.00607309 0.0074836 0.00844192 0.0106174 0.00799076 0.0100854 0.0106174 0.0129886 0.0100854 0.0123619 0.00799076 0.0100854 0.0074836 0.0094931 0.0100854 0.0123619 0.0094931 0.0116804 0.00475076 0.00607309 0.00417758 0.0053699 0.00607309 0.0074836 0.0053699 0.00663853 0.00417758 0.0053699 0.00355946 0.00460764 0.0053699 0.00663853 0.00460764 0.00570365 0.0074836 0.0094931 0.00663853 0.00849138 0.0094931 0.0116804 0.00849138 0.0105143 0.00663853 0.00849138 0.00570365 0.00738916 0.00849138 0.0105143 0.00738916 0.00923689 0.0126675 0.0130185 0.0148452 0.015275 0.0130185 0.0132923 0.015275 0.0155968 0.0148452 0.015275 0.0168188 0.0173032 0.015275 0.0155968 0.0173032 0.0176988 0.0132923 0.01318 0.0155968 0.0154846 0.01318 0.0129854 0.0154846 0.0152631 0.0155968 0.0154846 0.0176988 0.0175879 0.0154846 0.0152631 0.0175879 0.0173612 0.0176988 0.0175