<?xml version="1.0" ?> 
<!-- 
# vtk DataFile Version 3.0
#This file was generated by the deal.II library on 21:44:55 at 2021/4/29
-->
<VTKFile type="UnstructuredGrid" version="0.1" byte_order="LittleEndian">
<UnstructuredGrid>
<Piece NumberOfPoints="65536" NumberOfCells="16384" >
  <Points>
    <DataArray type="Float32" NumberOfComponents="3" format="ascii">
-1 -1 0
-0.984375 -1 0
-1 -0.984375 0
-0.984375 -0.984375 0
-0.984375 -1 0
-0.96875 -1 0
-0.984375 -0.984375 0
-0.96875 -0.984375 0
-1 -0.984375 0
-0.984375 -0.984375 0
-1 -0.96875 0
-0.984375 -0.96875 0
-0.984375 -0.984375 0
-0.96875 -0.984375 0
-0.984375 -0.96875 0
-0.96875 -0.96875 0
-0.96875 -1 0
-0.953125 -1 0
-0.96875 -0.984375 0
-0.953125 -0.984375 0
-0.953125 -1 0
-0.9375 -1 0
-0.953125 -0.984375 0
-0.9375 -0.984375 0
-0.96875 -0.984375 0
-0.953125 -0.984375 0
-0.96875 -0.96875 0
-0.953125 -0.96875 0
-0.953125 -0.984375 0
-0.9375 -0.984375 0
-0.953125 -0.96875 0
-0.9375 -0.96875 0
-1 -0.96875 0
-0.984375 -0.96875 0
-1 -0.953125 0
-0.984375 -0.953125 0
-0.984375 -0.96875 0
-0.96875 -0.96875 0
-0.984375 -0.953125 0
-0.96875 -0.953125 0
-1 -0.953125 0
-0.984375 -0.953125 0
-1 -0.9375 0
-0.984375 -0.9375 0
-0.984375 -0.953125 0
-0.96875 -0.953125 0
-0.984375 -0.9375 0
-0.96875 -0.9375 0
-0.96875 -0.96875 0
-0.953125 -0.96875 0
-0.96875 -0.953125 0
-0.953125 -0.953125 0
-0.953125 -0.96875 0
-0.9375 -0.96875 0
-0.953125 -0.953125 0
-0.9375 -0.953125 0
-0.96875 -0.953125 0
-0.953125 -0.953125 0
-0.96875 -0.9375 0
-0.953125 -0.9375 0
-0.953125 -0.953125 0
-0.9375 -0.953125 0
-0.953125 -0.9375 0
-0.9375 -0.9375 0
-0.9375 -1 0
-0.921875 -1 0
-0.9375 -0.984375 0
-0.921875 -0.984375 0
-0.921875 -1 0
-0.90625 -1 0
-0.921875 -0.984375 0
-0.90625 -0.984375 0
-0.9375 -0.984375 0
-0.921875 -0.984375 0
-0.9375 -0.96875 0
-0.921875 -0.96875 0
-0.921875 -0.984375 0
-0.90625 -0.984375 0
-0.921875 -0.96875 0
-0.90625 -0.96875 0
-0.90625 -1 0
-0.890625 -1 0
-0.90625 -0.984375 0
-0.890625 -0.984375 0
-0.890625 -1 0
-0.875 -1 0
-0.890625 -0.984375 0
-0.875 -0.984375 0
-0.90625 -0.984375 0
-0.890625 -0.984375 0
-0.90625 -0.96875 0
-0.890625 -0.96875 0
-0.890625 -0.984375 0
-0.875 -0.984375 0
-0.890625 -0.96875 0
-0.875 -0.96875 0
-0.9375 -0.96875 0
-0.921875 -0.96875 0
-0.9375 -0.953125 0
-0.921875 -0.953125 0
-0.921875 -0.96875 0
-0.90625 -0.96875 0
-0.921875 -0.953125 0
-0.90625 -0.953125 0
-0.9375 -0.953125 0
-0.921875 -0.953125 0
-0.9375 -0.9375 0
-0.921875 -0.9375 0
-0.921875 -0.953125 0
-0.90625 -0.953125 0
-0.921875 -0.9375 0
-0.90625 -0.9375 0
-0.90625 -0.96875 0
-0.890625 -0.96875 0
-0.90625 -0.953125 0
-0.890625 -0.953125 0
-0.890625 -0.96875 0
-0.875 -0.96875 0
-0.890625 -0.953125 0
-0.875 -0.953125 0
-0.90625 -0.953125 0
-0.890625 -0.953125 0
-0.90625 -0.9375 0
-0.890625 -0.9375 0
-0.890625 -0.953125 0
-0.875 -0.953125 0
-0.890625 -0.9375 0
-0.875 -0.9375 0
-1 -0.9375 0
-0.984375 -0.9375 0
-1 -0.921875 0
-0.984375 -0.921875 0
-0.984375 -0.9375 0
-0.96875 -0.9375 0
-0.984375 -0.921875 0
-0.96875 -0.921875 0
-1 -0.921875 0
-0.984375 -0.921875 0
-1 -0.90625 0
-0.984375 -0.90625 0
-0.984375 -0.921875 0
-0.96875 -0.921875 0
-0.984375 -0.90625 0
-0.96875 -0.90625 0
-0.96875 -0.9375 0
-0.953125 -0.9375 0
-0.96875 -0.921875 0
-0.953125 -0.921875 0
-0.953125 -0.9375 0
-0.9375 -0.9375 0
-0.953125 -0.921875 0
-0.9375 -0.921875 0
-0.96875 -0.921875 0
-0.953125 -0.921875 0
-0.96875 -0.90625 0
-0.953125 -0.90625 0
-0.953125 -0.921875 0
-0.9375 -0.921875 0
-0.953125 -0.90625 0
-0.9375 -0.90625 0
-1 -0.90625 0
-0.984375 -0.90625 0
-1 -0.890625 0
-0.984375 -0.890625 0
-0.984375 -0.90625 0
-0.96875 -0.90625 0
-0.984375 -0.890625 0
-0.96875 -0.890625 0
-1 -0.890625 0
-0.984375 -0.890625 0
-1 -0.875 0
-0.984375 -0.875 0
-0.984375 -0.890625 0
-0.96875 -0.890625 0
-0.984375 -0.875 0
-0.96875 -0.875 0
-0.96875 -0.90625 0
-0.953125 -0.90625 0
-0.96875 -0.890625 0
-0.953125 -0.890625 0
-0.953125 -0.90625 0
-0.9375 -0.90625 0
-0.953125 -0.890625 0
-0.9375 -0.890625 0
-0.96875 -0.890625 0
-0.953125 -0.890625 0
-0.96875 -0.875 0
-0.953125 -0.875 0
-0.953125 -0.890625 0
-0.9375 -0.890625 0
-0.953125 -0.875 0
-0.9375 -0.875 0
-0.9375 -0.9375 0
-0.921875 -0.9375 0
-0.9375 -0.921875 0
-0.921875 -0.921875 0
-0.921875 -0.9375 0
-0.90625 -0.9375 0
-0.921875 -0.921875 0
-0.90625 -0.921875 0
-0.9375 -0.921875 0
-0.921875 -0.921875 0
-0.9375 -0.90625 0
-0.921875 -0.90625 0
-0.921875 -0.921875 0
-0.90625 -0.921875 0
-0.921875 -0.90625 0
-0.90625 -0.90625 0
-0.90625 -0.9375 0
-0.890625 -0.9375 0
-0.90625 -0.921875 0
-0.890625 -0.921875 0
-0.890625 -0.9375 0
-0.875 -0.9375 0
-0.890625 -0.921875 0
-0.875 -0.921875 0
-0.90625 -0.921875 0
-0.890625 -0.921875 0
-0.90625 -0.90625 0
-0.890625 -0.90625 0
-0.890625 -0.921875 0
-0.875 -0.921875 0
-0.890625 -0.90625 0
-0.875 -0.90625 0
-0.9375 -0.90625 0
-0.921875 -0.90625 0
-0.9375 -0.890625 0
-0.921875 -0.890625 0
-0.921875 -0.90625 0
-0.90625 -0.90625 0
-0.921875 -0.890625 0
-0.90625 -0.890625 0
-0.9375 -0.890625 0
-0.921875 -0.890625 0
-0.9375 -0.875 0
-0.921875 -0.875 0
-0.921875 -0.890625 0
-0.90625 -0.890625 0
-0.921875 -0.875 0
-0.90625 -0.875 0
-0.90625 -0.90625 0
-0.890625 -0.90625 0
-0.90625 -0.890625 0
-0.890625 -0.890625 0
-0.890625 -0.90625 0
-0.875 -0.90625 0
-0.890625 -0.890625 0
-0.875 -0.890625 0
-0.90625 -0.890625 0
-0.890625 -0.890625 0
-0.90625 -0.875 0
-0.890625 -0.875 0
-0.890625 -0.890625 0
-0.875 -0.890625 0
-0.890625 -0.875 0
-0.875 -0.875 0
-0.875 -1 0
-0.859375 -1 0
-0.875 -0.984375 0
-0.859375 -0.984375 0
-0.859375 -1 0
-0.84375 -1 0
-0.859375 -0.984375 0
-0.84375 -0.984375 0
-0.875 -0.984375 0
-0.859375 -0.984375 0
-0.875 -0.96875 0
-0.859375 -0.96875 0
-0.859375 -0.984375 0
-0.84375 -0.984375 0
-0.859375 -0.96875 0
-0.84375 -0.96875 0
-0.84375 -1 0
-0.828125 -1 0
-0.84375 -0.984375 0
-0.828125 -0.984375 0
-0.828125 -1 0
-0.8125 -1 0
-0.828125 -0.984375 0
-0.8125 -0.984375 0
-0.84375 -0.984375 0
-0.828125 -0.984375 0
-0.84375 -0.96875 0
-0.828125 -0.96875 0
-0.828125 -0.984375 0
-0.8125 -0.984375 0
-0.828125 -0.96875 0
-0.8125 -0.96875 0
-0.875 -0.96875 0
-0.859375 -0.96875 0
-0.875 -0.953125 0
-0.859375 -0.953125 0
-0.859375 -0.96875 0
-0.84375 -0.96875 0
-0.859375 -0.953125 0
-0.84375 -0.953125 0
-0.875 -0.953125 0
-0.859375 -0.953125 0
-0.875 -0.9375 0
-0.859375 -0.9375 0
-0.859375 -0.953125 0
-0.84375 -0.953125 0
-0.859375 -0.9375 0
-0.84375 -0.9375 0
-0.84375 -0.96875 0
-0.828125 -0.96875 0
-0.84375 -0.953125 0
-0.828125 -0.953125 0
-0.828125 -0.96875 0
-0.8125 -0.96875 0
-0.828125 -0.953125 0
-0.8125 -0.953125 0
-0.84375 -0.953125 0
-0.828125 -0.953125 0
-0.84375 -0.9375 0
-0.828125 -0.9375 0
-0.828125 -0.953125 0
-0.8125 -0.953125 0
-0.828125 -0.9375 0
-0.8125 -0.9375 0
-0.8125 -1 0
-0.796875 -1 0
-0.8125 -0.984375 0
-0.796875 -0.984375 0
-0.796875 -1 0
-0.78125 -1 0
-0.796875 -0.984375 0
-0.78125 -0.984375 0
-0.8125 -0.984375 0
-0.796875 -0.984375 0
-0.8125 -0.96875 0
-0.796875 -0.96875 0
-0.796875 -0.984375 0
-0.78125 -0.984375 0
-0.796875 -0.96875 0
-0.78125 -0.96875 0
-0.78125 -1 0
-0.765625 -1 0
-0.78125 -0.984375 0
-0.765625 -0.984375 0
-0.765625 -1 0
-0.75 -1 0
-0.765625 -0.984375 0
-0.75 -0.984375 0
-0.78125 -0.984375 0
-0.765625 -0.984375 0
-0.78125 -0.96875 0
-0.765625 -0.96875 0
-0.765625 -0.984375 0
-0.75 -0.984375 0
-0.765625 -0.96875 0
-0.75 -0.96875 0
-0.8125 -0.96875 0
-0.796875 -0.96875 0
-0.8125 -0.953125 0
-0.796875 -0.953125 0
-0.796875 -0.96875 0
-0.78125 -0.96875 0
-0.796875 -0.953125 0
-0.78125 -0.953125 0
-0.8125 -0.953125 0
-0.796875 -0.953125 0
-0.8125 -0.9375 0
-0.796875 -0.9375 0
-0.796875 -0.953125 0
-0.78125 -0.953125 0
-0.796875 -0.9375 0
-0.78125 -0.9375 0
-0.78125 -0.96875 0
-0.765625 -0.96875 0
-0.78125 -0.953125 0
-0.765625 -0.953125 0
-0.765625 -0.96875 0
-0.75 -0.96875 0
-0.765625 -0.953125 0
-0.75 -0.953125 0
-0.78125 -0.953125 0
-0.765625 -0.953125 0
-0.78125 -0.9375 0
-0.765625 -0.9375 0
-0.765625 -0.953125 0
-0.75 -0.953125 0
-0.765625 -0.9375 0
-0.75 -0.9375 0
-0.875 -0.9375 0
-0.859375 -0.9375 0
-0.875 -0.921875 0
-0.859375 -0.921875 0
-0.859375 -0.9375 0
-0.84375 -0.9375 0
-0.859375 -0.921875 0
-0.84375 -0.921875 0
-0.875 -0.921875 0
-0.859375 -0.921875 0
-0.875 -0.90625 0
-0.859375 -0.90625 0
-0.859375 -0.921875 0
-0.84375 -0.921875 0
-0.859375 -0.90625 0
-0.84375 -0.90625 0
-0.84375 -0.9375 0
-0.828125 -0.9375 0
-0.84375 -0.921875 0
-0.828125 -0.921875 0
-0.828125 -0.9375 0
-0.8125 -0.9375 0
-0.828125 -0.921875 0
-0.8125 -0.921875 0
-0.84375 -0.921875 0
-0.828125 -0.921875 0
-0.84375 -0.90625 0
-0.828125 -0.90625 0
-0.828125 -0.921875 0
-0.8125 -0.921875 0
-0.828125 -0.90625 0
-0.8125 -0.90625 0
-0.875 -0.90625 0
-0.859375 -0.90625 0
-0.875 -0.890625 0
-0.859375 -0.890625 0
-0.859375 -0.90625 0
-0.84375 -0.90625 0
-0.859375 -0.890625 0
-0.84375 -0.890625 0
-0.875 -0.890625 0
-0.859375 -0.890625 0
-0.875 -0.875 0
-0.859375 -0.875 0
-0.859375 -0.890625 0
-0.84375 -0.890625 0
-0.859375 -0.875 0
-0.84375 -0.875 0
-0.84375 -0.90625 0
-0.828125 -0.90625 0
-0.84375 -0.890625 0
-0.828125 -0.890625 0
-0.828125 -0.90625 0
-0.8125 -0.90625 0
-0.828125 -0.890625 0
-0.8125 -0.890625 0
-0.84375 -0.890625 0
-0.828125 -0.890625 0
-0.84375 -0.875 0
-0.828125 -0.875 0
-0.828125 -0.890625 0
-0.8125 -0.890625 0
-0.828125 -0.875 0
-0.8125 -0.875 0
-0.8125 -0.9375 0
-0.796875 -0.9375 0
-0.8125 -0.921875 0
-0.796875 -0.921875 0
-0.796875 -0.9375 0
-0.78125 -0.9375 0
-0.796875 -0.921875 0
-0.78125 -0.921875 0
-0.8125 -0.921875 0
-0.796875 -0.921875 0
-0.8125 -0.90625 0
-0.796875 -0.90625 0
-0.796875 -0.921875 0
-0.78125 -0.921875 0
-0.796875 -0.90625 0
-0.78125 -0.90625 0
-0.78125 -0.9375 0
-0.765625 -0.9375 0
-0.78125 -0.921875 0
-0.765625 -0.921875 0
-0.765625 -0.9375 0
-0.75 -0.9375 0
-0.765625 -0.921875 0
-0.75 -0.921875 0
-0.78125 -0.921875 0
-0.765625 -0.921875 0
-0.78125 -0.90625 0
-0.765625 -0.90625 0
-0.765625 -0.921875 0
-0.75 -0.921875 0
-0.765625 -0.90625 0
-0.75 -0.90625 0
-0.8125 -0.90625 0
-0.796875 -0.90625 0
-0.8125 -0.890625 0
-0.796875 -0.890625 0
-0.796875 -0.90625 0
[...]
  <PointData Scalars="scalars">
    <DataArray type="Float32" Name="U" format="ascii">
0 0 0 5.75128e-06 0 0 5.75128e-06 1.17139e-05 0 5.75128e-06 0 -5.62496e-06 5.75128e-06 1.17139e-05 -5.62496e-06 -1.22827e-05 0 0 1.17139e-05 1.80315e-05 0 0 1.80315e-05 2.43913e-05 1.17139e-05 1.80315e-05 -1.22827e-05 -2.06789e-05 1.80315e-05 2.43913e-05 -2.06789e-05 -3.12267e-05 0 -5.62496e-06 0 -1.59615e-05 -5.62496e-06 -1.22827e-05 -1.59615e-05 -3.21576e-05 0 -1.59615e-05 0 -5.07188e-05 -1.59615e-05 -3.21576e-05 -5.07188e-05 -0.000102482 -1.22827e-05 -2.06789e-05 -3.21576e-05 -4.97161e-05 -2.06789e-05 -3.12267e-05 -4.97161e-05 -6.91711e-05 -3.21576e-05 -4.97161e-05 -0.000102482 -0.000155047 -4.97161e-05 -6.91711e-05 -0.000155047 -0.000209577 0 0 2.43913e-05 3.02811e-05 0 0 3.02811e-05 3.42827e-05 2.43913e-05 3.02811e-05 -3.12267e-05 -4.34018e-05 3.02811e-05 3.42827e-05 -4.34018e-05 -5.62151e-05 0 0 3.42827e-05 3.51419e-05 0 0 3.51419e-05 3.09973e-05 3.42827e-05 3.51419e-05 -5.62151e-05 -6.81213e-05 3.51419e-05 3.09973e-05 -6.81213e-05 -7.83996e-05 -3.12267e-05 -4.34018e-05 -6.91711e-05 -9.36483e-05 -4.34018e-05 -5.62151e-05 -9.36483e-05 -0.00012465 -6.91711e-05 -9.36483e-05 -0.000209577 -0.000263425 -9.36483e-05 -0.00012465 -0.000263425 -0.000317725 -5.62151e-05 -6.81213e-05 -0.00012465 -0.000166644 -6.81213e-05 -7.83996e-05 -0.000166644 -0.000219205 -0.00012465 -0.000166644 -0.000317725 -0.000368516 -0.000166644 -0.000219205 -0.000368516 -0.000421206 0 -5.07188e-05 0 -7.46035e-05 -5.07188e-05 -0.000102482 -7.46035e-05 -0.000150177 0 -7.46035e-05 0 -0.00011652 -7.46035e-05 -0.000150177 -0.00011652 -0.000232464 -0.000102482 -0.000155047 -0.000150177 -0.000228148 -0.000155047 -0.000209577 -0.000228148 -0.000310141 -0.000150177 -0.000228148 -0.000232464 -0.000349616 -0.000228148 -0.000310141 -0.000349616 -0.000464002 0 -0.00011652 0 -0.000128445 -0.00011652 -0.000232464 -0.000128445 -0.000259155 0 -0.000128445 0 -0.000140381 -0.000128445 -0.000259155 -0.000140381 -0.000281167 -0.000232464 -0.000349616 -0.000259155 -0.000389119 -0.000349616 -0.000464002 -0.000389119 -0.000526822 -0.000259155 -0.000389119 -0.000281167 -0.000425622 -0.000389119 -0.000526822 -0.000425622 -0.000570389 -0.000209577 -0.000263425 -0.000310141 -0.00039919 -0.000263425 -0.000317725 -0.00039919 -0.000497244 -0.000310141 -0.00039919 -0.000464002 -0.000578784 -0.00039919 -0.000497244 -0.000578784 -0.000686893 -0.000317725 -0.000368516 -0.000497244 -0.0006078 -0.000368516 -0.000421206 -0.0006078 -0.000727863 -0.000497244 -0.0006078 -0.000686893 -0.000793973 -0.0006078 -0.000727863 -0.000793973 -0.000894656 -0.000464002 -0.000578784 -0.000526822 -0.000664293 -0.000578784 -0.000686893 -0.000664293 -0.000816846 -0.000526822 -0.000664293 -0.000570389 -0.000722161 -0.000664293 -0.000816846 -0.000722161 -0.000871764 -0.000686893 -0.000793973 -0.000816846 -0.000969919 -0.000793973 -0.000894656 -0.000969919 -0.00114368 -0.000816846 -0.000969919 -0.000871764 -0.00103195 -0.000969919 -0.00114368 -0.00103195 -0.00118517 0 0 3.09973e-05 2.19e-05 0 0 2.19e-05 8.11522e-06 3.09973e-05 2.19e-05 -7.83996e-05 -8.86223e-05 2.19e-05 8.11522e-06 -8.86223e-05 -0.000103094 0 0 8.11522e-06 -7.29673e-06 0 0 -7.29673e-06 -2.4378e-05 8.11522e-06 -7.29673e-06 -0.000103094 -0.000129055 -7.29673e-06 -2.4378e-05 -0.000129055 -0.000169715 -7.83996e-05 -8.86223e-05 -0.000219205 -0.00028238 -8.86223e-05 -0.000103094 -0.00028238 -0.000347587 -0.000219205 -0.00028238 -0.000421206 -0.000477074 -0.00028238 -0.000347587 -0.000477074 -0.000553148 -0.000103094 -0.000129055 -0.000347587 -0.00040853 -0.000129055 -0.000169715 -0.00040853 -0.000459406 -0.000347587 -0.00040853 -0.000553148 -0.000656161 -0.00040853 -0.000459406 -0.000656161 -0.000800215 0 0 -2.4378e-05 -4.41431e-05 0 0 -4.41431e-05 -7.48285e-05 -2.4378e-05 -4.41431e-05 -0.000169715 -0.000222684 -4.41431e-05 -7.48285e-05 -0.000222684 -0.000272953 0 0 -7.48285e-05 -0.000118961 0 0 -0.000118961 -0.000172233 -7.48285e-05 -0.000118961 -0.000272953 -0.000312782 -0.000118961 -0.000172233 -0.000312782 -0.000349674 -0.000169715 -0.000222684 -0.000459406 -0.000512025 -0.000222684 -0.000272953 -0.000512025 -0.000590456 -0.000459406 -0.000512025 -0.000800215 -0.000965198 -0.000512025 -0.000590456 -0.000965198 -0.0011279 -0.000272953 -0.000312782 -0.000590456 -0.000720488 -0.000312782 -0.000349674 -0.000720488 -0.000898838 -0.000590456 -0.000720488 -0.0011279 -0.0012424 -0.000720488 -0.000898838 -0.0012424 -0.00131377 -0.000421206 -0.000477074 -0.000727863 -0.000855173 -0.000477074 -0.000553148 -0.000855173 -0.000973615 -0.000727863 -0.000855173 -0.000894656 -0.00100232 -0.000855173 -0.000973615 -0.00100232 -0.00112094 -0.000553148 -0.000656161 -0.000973615 -0.00107669 -0.000656161 -0.000800215 -0.00107669 -0.00114938 -0.000973615 -0.00107669 -0.00112094 -0.00126968 -0.00107669 -0.00114938 -0.00126968 -0.0014518 -0.000894656 -0.00100232 -0.00114368 -0.00131223 -0.00100232 -0.00112094 -0.00131223 -0.00149684 -0.00114368 -0.00131223 -0.00118517 -0.00135521 -0.00131223 -0.00149684 -0.00135521 -0.00151244 -0.00112094 -0.00126968 -0.00149684 -0.00165997 -0.00126968 -0.0014518 -0.00165997 -0.00183003 -0.00149684 -0.00165997 -0.00151244 -0.00169651 -0.00165997 -0.00183003 -0.00169651 -0.00185945 -0.000800215 -0.000965198 -0.00114938 -0.00121631 -0.000965198 -0.0011279 -0.00121631 -0.00129774 -0.00114938 -0.00121631 -0.0014518 -0.0016616 -0.00121631 -0.00129774 -0.0016616 -0.0018767 -0.0011279 -0.0012424 -0.00129774 -0.0014538 -0.0012424 -0.00131377 -0.0014538 -0.00167675 -0.00129774 -0.0014538 -0.0018767 -0.00205735 -0.0014538 -0.00167675 -0.00205735 -0.002206 -0.0014518 -0.0016616 -0.00183003 -0.00197446 -0.0016616 -0.0018767 -0.00197446 -0.00213977 -0.00183003 -0.00197446 -0.00185945 -0.00206189 -0.00197446 -0.00213977 -0.00206189 -0.00223725 -0.0018767 -0.00205735 -0.00213977 -0.00230534 -0.00205735 -0.002206 -0.00230534 -0.00250714 -0.00213977 -0.00230534 -0.00223725 -0.00247578 -0.00230534 -0.00250714 -0.00247578 -0.00269098 0 -0.000140381 0 -0.000115947 -0.000140381 -0.000281167 -0.000115947 -0.000230446 0 -0.000115947 0 -6.78179e-05 -0.000115947 -0.000230446 -6.78179e-05 -0.00014172 -0.000281167 -0.000425622 -0.000230446 -0.000350492 -0.000425622 -0.000570389 -0.000350492 -0.000466469 -0.000230446 -0.000350492 -0.00014172 -0.000207163 -0.000350492 -0.000466469 -0.000207163 -0.000291668 0 -6.78179e-05 0 -1.69776e-05 -6.78179e-05 -0.00014172 -1.69776e-05 -3.1373e-05 0 -1.69776e-05 0 7.01791e-05 -1.69776e-05 -3.1373e-05 7.01791e-05 0.000146244 -0.00014172 -0.000207163 -3.1373e-05 -5.42262e-05 -0.000207163 -0.000291668 -5.42262e-05 -6.71658e-05 -3.1373e-05 -5.42262e-05 0.000146244 0.00021308 -5.42262e-05 -6.71658e-05 0.00021308 0.000295187 -0.000570389 -0.000722161 -0.000466469 -0.000592652 -0.000722161 -0.000871764 -0.000592652 -0.000713143 -0.000466469 -0.000592652 -0.000291668 -0.000360058 -0.000592652 -0.000713143 -0.000360058 -0.000462633 -0.000871764 -0.00103195 -0.000713143 -0.00084681 -0.00103195 -0.00118517 -0.00084681 -0.000976344 -0.000713143 -0.00084681 -0.000462633 -0.000542571 -0.00084681 -0.000976344 -0.000542571 -0.000671784 -0.000291668 -0.000360058 -6.71658e-05 -9.69397e-05 -0.000360058 -0.000462633 -9.69397e-05 -0.000102775 -6.71658e-05 -9.69397e-05 0.000295187 0.000358734 -9.69397e-05 -0.000102775 0.000358734 0.000438805 -0.000462633 -0.000542571 -0.000102775 -0.000134167 -0.000542571 -0.000671784 -0.000134167 -0.000120089 -0.000102775 -0.000134167 0.000438805 0.000491382 -0.000134167 -0.000120089 0.000491382 0.000550188 0 7.01791e-05 0 0.000149425 7.01791e-05 0.000146244 0.000149425 0.000284778 0 0.000149425 0 0.000227254 0.000149425 0.000284778 0.000227254 0.000463332 0.000146244 0.00021308 0.000284778 0.000444533 0.00021308 0.000295187 0.000444533 0.00056289 0.000284778 0.000444533 0.000463332 0.000685719 0.000444533 0.00056289 0.000685719 0.000935951 0 0.000227254 0 0.000300119 0.000227254 0.000463332 0.000300119 0.000610301 0 0.000300119 0 0.000386419 0.000300119 0.000610301 0.000386419 0.000754557 0.000463332 0.000685719 0.000610301 0.000902088 0.000685719 0.000935951 0.000902088 0.00122247 0.000610301 0.000902088 0.000754557 0.00116236 0.000902088 0.00122247 0.00116236 0.00151447 0.000295187 0.000358734 0.00056289 0.00073291 0.000358734 0.000438805 0.00073291 0.00083804 0.00056289 0.00073291 0.000935951 0.0011522 0.00073291 0.00083804 0.0011522 0.00141853 0.000438805 0.000491382 0.00083804 0.0010271 0.000491382 0.000550188 0.0010271 0.00113357 0.00083804 0.0010271 0.00141853 0.00161777 0.0010271 0.00113357 0.00161777 0.00189623 0.000935951 0.0011522 0.00122247 0.00151254 0.0011522 0.00141853 0.00151254 0.00184463 0.00122247 0.00151254 0.00151447 0.00194511 0.00151254 0.00184463 0.00194511 0.00228136 0.00141853 0.00161777 0.00184463 0.0021477 0.00161777 0.00189623 0.0021477 0.00249326 0.00184463 0.0021477 0.00228136 0.00273314 0.0021477 0.00249326 0.00273314 0.00305611 -0.00118517 -0.00135521 -0.000976344 -0.00112149 -0.00135521 -0.00151244 -0.00112149 -0.00127356 -0.000976344 -0.00112149 -0.000671784 -0.000768041 -0.00112149 -0.00127356 -0.000768041 -0.000916552 -0.00151244 -0.00169651 -0.00127356 -0.00144602 -0.00169651 -0.00185945 -0.00144602 -0.00164775 -0.00127356 -0.00144602 -0.000916552 -0.00100839 -0.00144602 -0.00164775 -0.00100839 -0.00113683 -0.000671784 -0.000768041 -0.000120089 -0.000148943 -0.000768041 -0.000916552 -0.000148943 -0.000116017 -0.000120089 -0.000148943 0.000550188 0.000583393 -0.000148943 -0.000116017 0.000583393 0.000611159 -0.000916552 -0.00100839 -0.000116017 -0.000169797 -0.00100839 -0.00113683 -0.000169797 -0.000159887 -0.000116017 -0.000169797 0.000611159 0.000650942 -0.000169797 -0.000159887 0.000650942 0.000679098 -0.00185945 -0.00206189 -0.00164775 -0.00186 -0.00206189 -0.00223725 -0.00186 -0.00210422 -0.00164775 -0.00186 -0.00113683 -0.00119624 -0.00186 -0.00210422 -0.00119624 -0.00130203 -0.00223725 -0.00247578 -0.00210422 -0.00229574 -0.00247578 -0.00269098 -0.00229574 -0.00250292 -0.00210422 -0.00229574 -0.00130203 -0.00140025 -0.00229574 -0.00250292 -0.00140025 -0.0015751 -0.00113683 -0.00119624 -0.000159887 -0.000285311 -0.00119624 -0.00130203 -0.000285311 -0.000309014 -0.000159887 -0.000285311 0.000679098 0.00078143 -0.000285311 -0.000309014 0.00078143 0.00081416 -0.00130203 -0.00140025 -0.000309014 -0.0004491 -0.00140025 -0.0015751 -0.0004491 -0.000415645 -0.000309014 -0.0004491 0.00081416 0.000942835 -0.0004491 -0.000415645 0.000942835 0.000881642 0.000550188 0.000583393 0.00113357 0.00135263 0.000583393 0.000611159 0.00135263 0.00146775 0.00113357 0.00135263 0.00189623 0.0020646 0.00135263 0.00146775 0.0020646 0.00236172 0.000611159 0.000650942 0.00146775 0.00169499 0.000650942 0.000679098 0.00169499 0.0017903 0.00146775 0.00169499 0.00236172 0.00251251 0.00169499 0.0017903 0.00251251 0.00286595 0.00189623 0.0020646 0.00249326 0.00282576 0.0020646 0.00236172 0.00282576 0.00317044 0.00249326 0.00282576 0.00305611 0.00353031 0.00282576 0.00317044 0.00353031 0.00385982 0.00236172 0.00251251 0.00317044 0.00352984 0.00251251 0.00286595 0.00352984 0.00383172 0.00317044 0.00352984 0.00385982 0.00436893 0.00352984 0.00383172 0.00436893 0.00474235 0.000679098 0.00078143 0.0017903 0.00197188 0.00078143 0.00081416 0.00197188 0.00205007 0.0017903 0.00197188 0.00286595 0.00303497 0.00197188 0.00205007 0.00303497 0.00344758 0.00081416 0.000942835 0.00205007 0.00221099 0.000942835 0.000881642 0.00221099 0.00238219 0.00205007 0.00221099 0.00344758 0.00360118 0.00221099 0.00238219 0.00360118 0.00397339 0.00286595 0.00303497 0.00383172 0.00421154 0.00303497 0.00344758 0.00421154 0.00445943 0.00383172 0.00421154 0.00474235 0.00528172 0.00421154 0.00445943 0.00528172 0.00571289 0.00344758 0.00360118 0.00445943 0.00491454 0.00360118 0.00397339 0.00491454 0.00516483 0.00445943 0.00491454 0.00571289 0.00623286 0.00491454 0.00516483 0.00623286 0.00673482 0 0 -0.000172233 -0.000211131 0 0 -0.000211131 -0.000221736 -0.000172233 -0.000211131 -0.000349674 -0.000429665 -0.000211131 -0.000221736 -0.000429665 -0.00058791 0 0 -0.000221736 -0.000219511 0 0 -0.000219511 -0.000267892 -0.000221736 -0.000219511 -0.00058791 -0.00081402 -0.000219511 -0.000267892 -0.00081402 -0.00100598 -0.000349674 -0.000429665 -0.000898838 -0.00107354 -0.000429665 -0.00058791 -0.00107354 -0.00118763 -0.000898838 -0.00107354 -0.00131377 -0.00138304 -0.00107354 -0.00118763 -0.00138304 -0.00153378 -0.00058791 -0.00081402 -0.00118763 -0.00123463 -0.00081402 -0.00100598 -0.00123463 -0.00132284 -0.00118763 -0.00123463 -0.00153378 -0.00178643 -0.00123463 -0.00132284 -0.00178643 -0.00206863 0 0 -0.000267892 -0.000415294 0 0 -0.000415294 -0.000628908 -0.000267892 -0.000415294 -0.00100598 -0.00108475 -0.000415294 -0.000628908 -0.00108475 -0.00109033 0 0 -0.000628908 -0.000800003 0 0 -0.000800003 -0.000864787 -0.000628908 -0.000800003 -0.00109033 -0.00119916 -0.000800003 -0.000864787 -0.00119916 -0.00149593 -0.00100598 -0.00108475 -0.00132284 -0.00154434 -0.00108475 -0.00109033 -0.00154434 -0.00188332 -0.00132284 -0.00154434 -0.00206863 -0.00228862 -0.00154434 -0.00188332 -0.00228862 -0.0024422 -0.00109033 -0.00119916 -0.00188332 -0.00215544 -0.00119916 -0.00149593 -0.00215544 -0.00230824 -0.00188332 -0.00215544 -0.0024422 -0.00267168 -0.00215544 -0.00230824 -0.00267168 -0.00298174 -0.00131377 -0.00138304 -0.00167675 -0.00195429 -0.00138304 -0.00153378 -0.00195429 -0.00218795 -0.00167675 -0.00195429 -0.002206 -0.00232105 -0.00195429 -0.00218795 -0.00232105 -0.00248464 -0.00153378 -0.00178643 -0.00218795 -0.00237149 -0.00178643 -0.00206863 -0.00237149 -0.00251613 -0.00218795 -0.00237149 -0.00248464 -0.00267898 -0.00237149 -0.00251613 -0.00267898 -0.00294705 -0.002206 -0.00232105 -0.00250714 -0.00271785 -0.00232105 -0.00248464 -0.00271785 -0.00293716 -0.00250714 -0.00271785 -0.00269098 -0.00297672 -0.00271785 -0.00293716 -0.00297672 -0.00320473 -0.00248464 -0.00267898 -0.00293716 -0.00317105 -0.00267898 -0.00294705 -0.00317105 -0.00339272 -0.00293716 -0.00317105 -0.00320473 -0.00345123 -0.00317105 -0.00339272 -0.00345123 -0.00363402 -0.00206863 -0.00228862 -0.00251613 -0.00272162 -0.00228862 -0.0024422 -0.00272162 -0.0029738 -0.00251613 -0.00272162 -0.00294705 -0.00318354 -0.00272162 -0.0029738 -0.00318354 -0.0034619 -0.0024422 -0.00267168 -0.0029738 -0.0032165 -0.00267168 -0.00298174 -0.0032165 -0.00344852 -0.0029738 -0.0032165 -0.0034619 -0.00372967 -0.0032165 -0.00344852 -0.00372967 -0.00406698 -0.00294705 -0.00318354 -0.00339272 -0.00366306 -0.00318354 -0.0034619 -0.00366306 -0.00388749 -0.00339272 -0.00366306 -0.00363402 -0.00384615 -0.00366306 -0.00388749 -0.00384615 -0.00407004 -0.0034619 -0.00372967 -0.00388749 -0.0041954 -0.00372967 -0.00406698 -0.0041954 -0.0044168 -0.00388749 -0.0041954 -0.00407004 -0.00422757 -0.0041954 -0.0044168 -0.00422757 -0.00442233 0 0 -0.000864787 -0.000902319 0 0 -0.000902319 -0.00100616 -0.000864787 -0.000902319 -0.00149593 -0.00185178 -0.000902319 -0.00100616 -0.00185178 -0.00211883 0 0 -0.00100616 -0.00118058 0 0 -0.00118058 -0.00136288 -0.00100616 -0.00118058 -0.00211883 -0.00233219 -0.00118058 -0.00136288 -0.00233219 -0.00260976 -0.00149593 -0.00185178 -0.00230824 -0.00247053 -0.00185178 -0.00211883 -0.00247053 -0.00279586 -0.00230824 -0.00247053 -0.00298174 -0.00328069 -0.00247053 -0.00279586 -0.00328069 -0.00342826 -0.00211883 -0.00233219 -0.00279586 -0.00315021 -0.00233219 -0.00260976 -0.00315021 -0.00337766 -0.00279586 -0.00315021 -0.00342826 -0.00365344 -0.00315021 -0.00337766 -0.00365344 -0.00408384 0 0 -0.00136288 -0.00161225 0 0 -0.00161225 -0.00187745 -0.00136288 -0.00161225 -0.00260976 -0.00280939 -0.00161225 -0.00187745 -0.00280939 -0.00294502 0 0 -0.00187745 -0.00196722 0 0 -0.00196722 -0.00189131 -0.00187745 -0.00196722 -0.00294502 -0.00325632 -0.00196722 -0.00189131 -0.00325632 -0.0038004 -0.00260976 -0.00280939 -0.00337766 -0.00366111 -0.00280939 -0.00294502 -0.00366111 -0.00409801 -0.00337766 -0.00366111 -0.00408384 -0.00460996 -0.00366111 -0.00409801 -0.00460996 -0.00499653 -0.00294502 -0.00325632 -0.00409801 -0.00454312 -0.00325632 -0.0038004 -0.00454312 -0.0047986 -0.00409801 -0.00454312 -0.00499653 -0.0052472 -0.00454312 -0.0047986 -0.0052472 -0.00560339 -0.00298174 -0.00328069 -0.00344852 -0.00373591 -0.00328069 -0.00342826 -0.00373591 -0.00418992 -0.00344852 -0.00373591 -0.00406698 -0.00438428 -0.00373591 -0.00418992 -0.00438428 -0.00467182 -0.00342826 -0.00365344 -0.00418992 -0.00459296 -0.00365344 -0.00408384 -0.00459296 -0.00491617 -0.00418992 -0.00459296 -0.00467182 -0.00495819 -0.00459296 -0.00491617 -0.00495819 -0.00519492 -0.00406698 -0.00438428 -0.0044168 -0.00468696 -0.00438428 -0.00467182 -0.00468696 -0.00482106 -0.0044168 -0.00468696 -0.00442233 -0.00457808 -0.00468696 -0.00482106 -0.00457808 -0.00502589 -0.00467182 -0.00495819 -0.00482106 -0.00511246 -0.00495819 -0.00519492 -0.00511246 -0.00554148 -0.00482106 -0.00511246 -0.00502589 -0.00523215 -0.00511246 -0.00554148 -0.00523215 -0.0053853 -0.00408384 -0.00460996 -0.00491617 -0.00507281 -0.00460996 -0.00499653 -0.00507281 -0.00537559 -0.00491617 -0.00507281 -0.00519492 -0.00564209 -0.00507281 -0.00537559 -0.00564209 -0.00605581 -0.00499653 -0.0052472 -0.00537559 -0.00585017 -0.0052472 -0.00560339 -0.00585017 -0.00644413 -0.00537559 -0.00585017 -0.00605581 -0.00650218 -0.00585017 -0.00644413 -0.00650218 -0.00664427 -0.00519492 -0.00564209 -0.00554148 -0.00591362 -0.00564209 -0.00605581 -0.00591362 -0.00617364 -0.00554148 -0.00591362 -0.0053853 -0.00532006 -0.00591362 -0.00617364 -0.00532006 -0.00556104 -0.00605581 -0.00650218 -0.00617364 -0.00624523 -0.00650218 -0.00664427 -0.00624523 -0.00672696 -0.00617364 -0.00624523 -0.00556104 -0.00584776 -0.00624523 -0.00672696 -0.00584776 -0.00581744 -0.00269098 -0.00297672 -0.00250292 -0.00261721 -0.00297672 -0.00320473 -0.00261721 -0.00283526 -0.00250292 -0.00261721 -0.0015751 -0.00178397 -0.00261721 -0.00283526 -0.00178397 -0.00194865 -0.00320473 -0.00345123 -0.00283526 -0.00300291 -0.00345123 -0.00363402 -0.00300291 -0.00331146 -0.00283526 -0.00300291 -0.00194865 -0.00211811 -0.00300291 -0.00331146 -0.00211811 -0.00217245 -0.0015751 -0.00178397 -0.000415645 -0.000502934 -0.00178397 -0.00194865 -0.000502934 -0.000500513 -0.000415645 -0.000502934 0.000881642 0.0009878 -0.000502934 -0.000500513 0.0009878 0.000899281 -0.00194865 -0.00211811 -0.000500513 -0.000676837 -0.00211811 -0.00217245 -0.000676837 -0.00080393 -0.000500513 -0.000676837 0.000899281 0.00113037 -0.000676837 -0.00080393 0.00113037 0.00111537 -0.00363402 -0.00384615 -0.00331146 -0.00345678 -0.00384615 -0.00407004 -0.00345678 -0.00367253 -0.00331146 -0.00345678 -0.00217245 -0.00244794 -0.00345678 -0.00367253 -0.00244794 -0.00261369 -0.00407004 -0.00422757 -0.00367253 -0.00383189 -0.00422757 -0.00442233 -0.00383189 -0.00414053 -0.00367253 -0.00383189 -0.00261369 -0.0029436 -0.00383189 -0.00414053 -0.0029436 -0.00287122 -0.00217245 -0.00244794 -0.00080393 -0.000858135 -0.00244794 -0.00261369 -0.000858135 -0.000869224 -0.00080393 -0.000858135 0.00111537 0.00129629 -0.000858135 -0.000869224 0.00129629 0.00114618 -0.00261369 -0.0029436 -0.000869224 -0.00075914 -0.0029436 -0.00287122 -0.00075914 -0.00103717 -0.000869224 -0.00075914 0.00114618 0.00113085 -0.00075914 -0.00103717 0.00113085 0.00112547 0.000881642 0.0009878 0.00238219 0.0025568 0.0009878 0.000899281 0.0025568 0.00280325 0.00238219 0.0025568 0.00397339 0.00407444 0.0025568 0.00280325 0.00407444 0.0043845 0.000899281 0.00113037 0.00280325 0.00283281 0.00113037 0.00111537 0.00283281 0.00306349 0.00280325 0.00283281 0.0043845 0.00457038 0.00283281 0.00306349 0.00457038 0.0048791 0.00397339 0.00407444 0.00516483 0.00574433 0.00407444 0.0043845 0.00574433 0.00601644 0.00516483 0.00574433 0.00673482 0.00721592 0.00574433 0.00601644 0.00721592 0.00782669 0.0043845 0.00457038 0.00601644 0.00666696 0.00457038 0.0048791 0.00666696 0.00695311 0.00601644 0.00666696 0.00782669 0.00822741 0.00666696 0.00695311 0.00822741 0.00890167 0.00111537 0.00129629 0.00306349 0.00298252 0.