<?xml version="1.0" ?> 
<!-- 
# vtk DataFile Version 3.0
#This file was generated by the deal.II library on 21:42:37 at 2021/4/29
-->
<VTKFile type="UnstructuredGrid" version="0.1" byte_order="LittleEndian">
<UnstructuredGrid>
<Piece NumberOfPoints="65536" NumberOfCells="16384" >
  <Points>
    <DataArray type="Float32" NumberOfComponents="3" format="ascii">
-1 -1 0
-0.984375 -1 0
-1 -0.984375 0
-0.984375 -0.984375 0
-0.984375 -1 0
-0.96875 -1 0
-0.984375 -0.984375 0
-0.96875 -0.984375 0
-1 -0.984375 0
-0.984375 -0.984375 0
-1 -0.96875 0
-0.984375 -0.96875 0
-0.984375 -0.984375 0
-0.96875 -0.984375 0
-0.984375 -0.96875 0
-0.96875 -0.96875 0
-0.96875 -1 0
-0.953125 -1 0
-0.96875 -0.984375 0
-0.953125 -0.984375 0
-0.953125 -1 0
-0.9375 -1 0
-0.953125 -0.984375 0
-0.9375 -0.984375 0
-0.96875 -0.984375 0
-0.953125 -0.984375 0
-0.96875 -0.96875 0
-0.953125 -0.96875 0
-0.953125 -0.984375 0
-0.9375 -0.984375 0
-0.953125 -0.96875 0
-0.9375 -0.96875 0
-1 -0.96875 0
-0.984375 -0.96875 0
-1 -0.953125 0
-0.984375 -0.953125 0
-0.984375 -0.96875 0
-0.96875 -0.96875 0
-0.984375 -0.953125 0
-0.96875 -0.953125 0
-1 -0.953125 0
-0.984375 -0.953125 0
-1 -0.9375 0
-0.984375 -0.9375 0
-0.984375 -0.953125 0
-0.96875 -0.953125 0
-0.984375 -0.9375 0
-0.96875 -0.9375 0
-0.96875 -0.96875 0
-0.953125 -0.96875 0
-0.96875 -0.953125 0
-0.953125 -0.953125 0
-0.953125 -0.96875 0
-0.9375 -0.96875 0
-0.953125 -0.953125 0
-0.9375 -0.953125 0
-0.96875 -0.953125 0
-0.953125 -0.953125 0
-0.96875 -0.9375 0
-0.953125 -0.9375 0
-0.953125 -0.953125 0
-0.9375 -0.953125 0
-0.953125 -0.9375 0
-0.9375 -0.9375 0
-0.9375 -1 0
-0.921875 -1 0
-0.9375 -0.984375 0
-0.921875 -0.984375 0
-0.921875 -1 0
-0.90625 -1 0
-0.921875 -0.984375 0
-0.90625 -0.984375 0
-0.9375 -0.984375 0
-0.921875 -0.984375 0
-0.9375 -0.96875 0
-0.921875 -0.96875 0
-0.921875 -0.984375 0
-0.90625 -0.984375 0
-0.921875 -0.96875 0
-0.90625 -0.96875 0
-0.90625 -1 0
-0.890625 -1 0
-0.90625 -0.984375 0
-0.890625 -0.984375 0
-0.890625 -1 0
-0.875 -1 0
-0.890625 -0.984375 0
-0.875 -0.984375 0
-0.90625 -0.984375 0
-0.890625 -0.984375 0
-0.90625 -0.96875 0
-0.890625 -0.96875 0
-0.890625 -0.984375 0
-0.875 -0.984375 0
-0.890625 -0.96875 0
-0.875 -0.96875 0
-0.9375 -0.96875 0
-0.921875 -0.96875 0
-0.9375 -0.953125 0
-0.921875 -0.953125 0
-0.921875 -0.96875 0
-0.90625 -0.96875 0
-0.921875 -0.953125 0
-0.90625 -0.953125 0
-0.9375 -0.953125 0
-0.921875 -0.953125 0
-0.9375 -0.9375 0
-0.921875 -0.9375 0
-0.921875 -0.953125 0
-0.90625 -0.953125 0
-0.921875 -0.9375 0
-0.90625 -0.9375 0
-0.90625 -0.96875 0
-0.890625 -0.96875 0
-0.90625 -0.953125 0
-0.890625 -0.953125 0
-0.890625 -0.96875 0
-0.875 -0.96875 0
-0.890625 -0.953125 0
-0.875 -0.953125 0
-0.90625 -0.953125 0
-0.890625 -0.953125 0
-0.90625 -0.9375 0
-0.890625 -0.9375 0
-0.890625 -0.953125 0
-0.875 -0.953125 0
-0.890625 -0.9375 0
-0.875 -0.9375 0
-1 -0.9375 0
-0.984375 -0.9375 0
-1 -0.921875 0
-0.984375 -0.921875 0
-0.984375 -0.9375 0
-0.96875 -0.9375 0
-0.984375 -0.921875 0
-0.96875 -0.921875 0
-1 -0.921875 0
-0.984375 -0.921875 0
-1 -0.90625 0
-0.984375 -0.90625 0
-0.984375 -0.921875 0
-0.96875 -0.921875 0
-0.984375 -0.90625 0
-0.96875 -0.90625 0
-0.96875 -0.9375 0
-0.953125 -0.9375 0
-0.96875 -0.921875 0
-0.953125 -0.921875 0
-0.953125 -0.9375 0
-0.9375 -0.9375 0
-0.953125 -0.921875 0
-0.9375 -0.921875 0
-0.96875 -0.921875 0
-0.953125 -0.921875 0
-0.96875 -0.90625 0
-0.953125 -0.90625 0
-0.953125 -0.921875 0
-0.9375 -0.921875 0
-0.953125 -0.90625 0
-0.9375 -0.90625 0
-1 -0.90625 0
-0.984375 -0.90625 0
-1 -0.890625 0
-0.984375 -0.890625 0
-0.984375 -0.90625 0
-0.96875 -0.90625 0
-0.984375 -0.890625 0
-0.96875 -0.890625 0
-1 -0.890625 0
-0.984375 -0.890625 0
-1 -0.875 0
-0.984375 -0.875 0
-0.984375 -0.890625 0
-0.96875 -0.890625 0
-0.984375 -0.875 0
-0.96875 -0.875 0
-0.96875 -0.90625 0
-0.953125 -0.90625 0
-0.96875 -0.890625 0
-0.953125 -0.890625 0
-0.953125 -0.90625 0
-0.9375 -0.90625 0
-0.953125 -0.890625 0
-0.9375 -0.890625 0
-0.96875 -0.890625 0
-0.953125 -0.890625 0
-0.96875 -0.875 0
-0.953125 -0.875 0
-0.953125 -0.890625 0
-0.9375 -0.890625 0
-0.953125 -0.875 0
-0.9375 -0.875 0
-0.9375 -0.9375 0
-0.921875 -0.9375 0
-0.9375 -0.921875 0
-0.921875 -0.921875 0
-0.921875 -0.9375 0
-0.90625 -0.9375 0
-0.921875 -0.921875 0
-0.90625 -0.921875 0
-0.9375 -0.921875 0
-0.921875 -0.921875 0
-0.9375 -0.90625 0
-0.921875 -0.90625 0
-0.921875 -0.921875 0
-0.90625 -0.921875 0
-0.921875 -0.90625 0
-0.90625 -0.90625 0
-0.90625 -0.9375 0
-0.890625 -0.9375 0
-0.90625 -0.921875 0
-0.890625 -0.921875 0
-0.890625 -0.9375 0
-0.875 -0.9375 0
-0.890625 -0.921875 0
-0.875 -0.921875 0
-0.90625 -0.921875 0
-0.890625 -0.921875 0
-0.90625 -0.90625 0
-0.890625 -0.90625 0
-0.890625 -0.921875 0
-0.875 -0.921875 0
-0.890625 -0.90625 0
-0.875 -0.90625 0
-0.9375 -0.90625 0
-0.921875 -0.90625 0
-0.9375 -0.890625 0
-0.921875 -0.890625 0
-0.921875 -0.90625 0
-0.90625 -0.90625 0
-0.921875 -0.890625 0
-0.90625 -0.890625 0
-0.9375 -0.890625 0
-0.921875 -0.890625 0
-0.9375 -0.875 0
-0.921875 -0.875 0
-0.921875 -0.890625 0
-0.90625 -0.890625 0
-0.921875 -0.875 0
-0.90625 -0.875 0
-0.90625 -0.90625 0
-0.890625 -0.90625 0
-0.90625 -0.890625 0
-0.890625 -0.890625 0
-0.890625 -0.90625 0
-0.875 -0.90625 0
-0.890625 -0.890625 0
-0.875 -0.890625 0
-0.90625 -0.890625 0
-0.890625 -0.890625 0
-0.90625 -0.875 0
-0.890625 -0.875 0
-0.890625 -0.890625 0
-0.875 -0.890625 0
-0.890625 -0.875 0
-0.875 -0.875 0
-0.875 -1 0
-0.859375 -1 0
-0.875 -0.984375 0
-0.859375 -0.984375 0
-0.859375 -1 0
-0.84375 -1 0
-0.859375 -0.984375 0
-0.84375 -0.984375 0
-0.875 -0.984375 0
-0.859375 -0.984375 0
-0.875 -0.96875 0
-0.859375 -0.96875 0
-0.859375 -0.984375 0
-0.84375 -0.984375 0
-0.859375 -0.96875 0
-0.84375 -0.96875 0
-0.84375 -1 0
-0.828125 -1 0
-0.84375 -0.984375 0
-0.828125 -0.984375 0
-0.828125 -1 0
-0.8125 -1 0
-0.828125 -0.984375 0
-0.8125 -0.984375 0
-0.84375 -0.984375 0
-0.828125 -0.984375 0
-0.84375 -0.96875 0
-0.828125 -0.96875 0
-0.828125 -0.984375 0
-0.8125 -0.984375 0
-0.828125 -0.96875 0
-0.8125 -0.96875 0
-0.875 -0.96875 0
-0.859375 -0.96875 0
-0.875 -0.953125 0
-0.859375 -0.953125 0
-0.859375 -0.96875 0
-0.84375 -0.96875 0
-0.859375 -0.953125 0
-0.84375 -0.953125 0
-0.875 -0.953125 0
-0.859375 -0.953125 0
-0.875 -0.9375 0
-0.859375 -0.9375 0
-0.859375 -0.953125 0
-0.84375 -0.953125 0
-0.859375 -0.9375 0
-0.84375 -0.9375 0
-0.84375 -0.96875 0
-0.828125 -0.96875 0
-0.84375 -0.953125 0
-0.828125 -0.953125 0
-0.828125 -0.96875 0
-0.8125 -0.96875 0
-0.828125 -0.953125 0
-0.8125 -0.953125 0
-0.84375 -0.953125 0
-0.828125 -0.953125 0
-0.84375 -0.9375 0
-0.828125 -0.9375 0
-0.828125 -0.953125 0
-0.8125 -0.953125 0
-0.828125 -0.9375 0
-0.8125 -0.9375 0
-0.8125 -1 0
-0.796875 -1 0
-0.8125 -0.984375 0
-0.796875 -0.984375 0
-0.796875 -1 0
-0.78125 -1 0
-0.796875 -0.984375 0
-0.78125 -0.984375 0
-0.8125 -0.984375 0
-0.796875 -0.984375 0
-0.8125 -0.96875 0
-0.796875 -0.96875 0
-0.796875 -0.984375 0
-0.78125 -0.984375 0
-0.796875 -0.96875 0
-0.78125 -0.96875 0
-0.78125 -1 0
-0.765625 -1 0
-0.78125 -0.984375 0
-0.765625 -0.984375 0
-0.765625 -1 0
-0.75 -1 0
-0.765625 -0.984375 0
-0.75 -0.984375 0
-0.78125 -0.984375 0
-0.765625 -0.984375 0
-0.78125 -0.96875 0
-0.765625 -0.96875 0
-0.765625 -0.984375 0
-0.75 -0.984375 0
-0.765625 -0.96875 0
-0.75 -0.96875 0
-0.8125 -0.96875 0
-0.796875 -0.96875 0
-0.8125 -0.953125 0
-0.796875 -0.953125 0
-0.796875 -0.96875 0
-0.78125 -0.96875 0
-0.796875 -0.953125 0
-0.78125 -0.953125 0
-0.8125 -0.953125 0
-0.796875 -0.953125 0
-0.8125 -0.9375 0
-0.796875 -0.9375 0
-0.796875 -0.953125 0
-0.78125 -0.953125 0
-0.796875 -0.9375 0
-0.78125 -0.9375 0
-0.78125 -0.96875 0
-0.765625 -0.96875 0
-0.78125 -0.953125 0
-0.765625 -0.953125 0
-0.765625 -0.96875 0
-0.75 -0.96875 0
-0.765625 -0.953125 0
-0.75 -0.953125 0
-0.78125 -0.953125 0
-0.765625 -0.953125 0
-0.78125 -0.9375 0
-0.765625 -0.9375 0
-0.765625 -0.953125 0
-0.75 -0.953125 0
-0.765625 -0.9375 0
-0.75 -0.9375 0
-0.875 -0.9375 0
-0.859375 -0.9375 0
-0.875 -0.921875 0
-0.859375 -0.921875 0
-0.859375 -0.9375 0
-0.84375 -0.9375 0
-0.859375 -0.921875 0
-0.84375 -0.921875 0
-0.875 -0.921875 0
-0.859375 -0.921875 0
-0.875 -0.90625 0
-0.859375 -0.90625 0
-0.859375 -0.921875 0
-0.84375 -0.921875 0
-0.859375 -0.90625 0
-0.84375 -0.90625 0
-0.84375 -0.9375 0
-0.828125 -0.9375 0
-0.84375 -0.921875 0
-0.828125 -0.921875 0
-0.828125 -0.9375 0
-0.8125 -0.9375 0
-0.828125 -0.921875 0
-0.8125 -0.921875 0
-0.84375 -0.921875 0
-0.828125 -0.921875 0
-0.84375 -0.90625 0
-0.828125 -0.90625 0
-0.828125 -0.921875 0
-0.8125 -0.921875 0
-0.828125 -0.90625 0
-0.8125 -0.90625 0
-0.875 -0.90625 0
-0.859375 -0.90625 0
-0.875 -0.890625 0
-0.859375 -0.890625 0
-0.859375 -0.90625 0
-0.84375 -0.90625 0
-0.859375 -0.890625 0
-0.84375 -0.890625 0
-0.875 -0.890625 0
-0.859375 -0.890625 0
-0.875 -0.875 0
-0.859375 -0.875 0
-0.859375 -0.890625 0
-0.84375 -0.890625 0
-0.859375 -0.875 0
-0.84375 -0.875 0
-0.84375 -0.90625 0
-0.828125 -0.90625 0
-0.84375 -0.890625 0
-0.828125 -0.890625 0
-0.828125 -0.90625 0
-0.8125 -0.90625 0
-0.828125 -0.890625 0
-0.8125 -0.890625 0
-0.84375 -0.890625 0
-0.828125 -0.890625 0
-0.84375 -0.875 0
-0.828125 -0.875 0
-0.828125 -0.890625 0
-0.8125 -0.890625 0
-0.828125 -0.875 0
-0.8125 -0.875 0
-0.8125 -0.9375 0
-0.796875 -0.9375 0
-0.8125 -0.921875 0
-0.796875 -0.921875 0
-0.796875 -0.9375 0
-0.78125 -0.9375 0
-0.796875 -0.921875 0
-0.78125 -0.921875 0
-0.8125 -0.921875 0
-0.796875 -0.921875 0
-0.8125 -0.90625 0
-0.796875 -0.90625 0
-0.796875 -0.921875 0
-0.78125 -0.921875 0
-0.796875 -0.90625 0
-0.78125 -0.90625 0
-0.78125 -0.9375 0
-0.765625 -0.9375 0
-0.78125 -0.921875 0
-0.765625 -0.921875 0
-0.765625 -0.9375 0
-0.75 -0.9375 0
-0.765625 -0.921875 0
-0.75 -0.921875 0
-0.78125 -0.921875 0
-0.765625 -0.921875 0
-0.78125 -0.90625 0
-0.765625 -0.90625 0
-0.765625 -0.921875 0
-0.75 -0.921875 0
-0.765625 -0.90625 0
-0.75 -0.90625 0
-0.8125 -0.90625 0
-0.796875 -0.90625 0
-0.8125 -0.890625 0
-0.796875 -0.890625 0
-0.796875 -0.90625 0
[...]
  <PointData Scalars="scalars">
    <DataArray type="Float32" Name="U" format="ascii">
0 0 0 1.68023e-05 0 0 1.68023e-05 3.99773e-05 0 1.68023e-05 0 0.000191228 1.68023e-05 3.99773e-05 0.000191228 0.000396851 0 0 3.99773e-05 7.8496e-05 0 0 7.8496e-05 0.000146658 3.99773e-05 7.8496e-05 0.000396851 0.000631551 7.8496e-05 0.000146658 0.000631551 0.000910114 0 0.000191228 0 0.000488579 0.000191228 0.000396851 0.000488579 0.000986794 0 0.000488579 0 0.000868033 0.000488579 0.000986794 0.000868033 0.00174511 0.000396851 0.000631551 0.000986794 0.00150587 0.000631551 0.000910114 0.00150587 0.0020601 0.000986794 0.00150587 0.00174511 0.00264014 0.00150587 0.0020601 0.00264014 0.00356289 0 0 0.000146658 0.000266406 0 0 0.000266406 0.000467474 0.000146658 0.000266406 0.000910114 0.001247 0.000266406 0.000467474 0.001247 0.00165711 0 0 0.000467474 0.000782567 0 0 0.000782567 0.00123577 0.000467474 0.000782567 0.00165711 0.00215984 0.000782567 0.00123577 0.00215984 0.00278708 0.000910114 0.001247 0.0020601 0.00266792 0.001247 0.00165711 0.00266792 0.00335186 0.0020601 0.00266792 0.00356289 0.0045264 0.00266792 0.00335186 0.0045264 0.00555007 0.00165711 0.00215984 0.00335186 0.00413748 0.00215984 0.00278708 0.00413748 0.00505274 0.00335186 0.00413748 0.00555007 0.00666005 0.00413748 0.00505274 0.00666005 0.00788272 0 0.000868033 0 0.00119971 0.000868033 0.00174511 0.00119971 0.00242175 0 0.00119971 0 0.00137514 0.00119971 0.00242175 0.00137514 0.00276768 0.00174511 0.00264014 0.00242175 0.00368517 0.00264014 0.00356289 0.00368517 0.00500174 0.00242175 0.00368517 0.00276768 0.00419563 0.00368517 0.00500174 0.00419563 0.00567746 0 0.00137514 0 0.00148339 0.00137514 0.00276768 0.00148339 0.00297049 0 0.00148339 0 0.00154211 0.00148339 0.00297049 0.00154211 0.00308547 0.00276768 0.00419563 0.00297049 0.00446615 0.00419563 0.00567746 0.00446615 0.00597833 0.00297049 0.00446615 0.00308547 0.00463041 0.00446615 0.00597833 0.00463041 0.00617514 0.00356289 0.0045264 0.00500174 0.00637164 0.0045264 0.00555007 0.00637164 0.00778132 0.00500174 0.00637164 0.00567746 0.00722989 0.00637164 0.00778132 0.00722989 0.00886225 0.00555007 0.00666005 0.00778132 0.00920753 0.00666005 0.00788272 0.00920753 0.0106304 0.00778132 0.00920753 0.00886225 0.0105675 0.00920753 0.0106304 0.0105675 0.0123145 0.00567746 0.00722989 0.00597833 0.00752131 0.00722989 0.00886225 0.00752131 0.00911898 0.00597833 0.00752131 0.00617514 0.00771441 0.00752131 0.00911898 0.00771441 0.00923928 0.00886225 0.0105675 0.00911898 0.0108042 0.0105675 0.0123145 0.0108042 0.0126066 0.00911898 0.0108042 0.00923928 0.0107411 0.0108042 0.0126066 0.0107411 0.0122225 0 0 0.00123577 0.00182718 0 0 0.00182718 0.00252473 0.00123577 0.00182718 0.00278708 0.00359046 0.00182718 0.00252473 0.00359046 0.00463719 0 0 0.00252473 0.00327772 0 0 0.00327772 0.0040557 0.00252473 0.00327772 0.00463719 0.00598422 0.00327772 0.0040557 0.00598422 0.00763569 0.00278708 0.00359046 0.00505274 0.00613061 0.00359046 0.00463719 0.00613061 0.00741463 0.00505274 0.00613061 0.00788272 0.00923041 0.00613061 0.00741463 0.00923041 0.0106893 0.00463719 0.00598422 0.00741463 0.00895937 0.00598422 0.00763569 0.00895937 0.0108111 0.00741463 0.00895937 0.0106893 0.012229 0.00895937 0.0108111 0.012229 0.0138447 0 0 0.0040557 0.00488823 0 0 0.00488823 0.00585814 0.0040557 0.00488823 0.00763569 0.00951282 0.00488823 0.00585814 0.00951282 0.0114719 0 0 0.00585814 0.00702039 0 0 0.00702039 0.00829116 0.00585814 0.00702039 0.0114719 0.0133731 0.00702039 0.00829116 0.0133731 0.0151446 0.00763569 0.00951282 0.0108111 0.0129647 0.00951282 0.0114719 0.0129647 0.0153249 0.0108111 0.0129647 0.0138447 0.0156055 0.0129647 0.0153249 0.0156055 0.0176462 0.0114719 0.0133731 0.0153249 0.0177236 0.0133731 0.0151446 0.0177236 0.0200094 0.0153249 0.0177236 0.0176462 0.0200599 0.0177236 0.0200094 0.0200599 0.0227551 0.00788272 0.00923041 0.0106304 0.0120505 0.00923041 0.0106893 0.0120505 0.0134964 0.0106304 0.0120505 0.0123145 0.0140519 0.0120505 0.0134964 0.0140519 0.0157313 0.0106893 0.012229 0.0134964 0.0150079 0.012229 0.0138447 0.0150079 0.0166028 0.0134964 0.0150079 0.0157313 0.0173384 0.0150079 0.0166028 0.0173384 0.018897 0.0123145 0.0140519 0.0126066 0.0145234 0.0140519 0.0157313 0.0145234 0.0164848 0.0126066 0.0145234 0.0122225 0.0137104 0.0145234 0.0164848 0.0137104 0.015251 0.0157313 0.0173384 0.0164848 0.0183478 0.0173384 0.018897 0.0183478 0.0199518 0.0164848 0.0183478 0.015251 0.0168659 0.0183478 0.0199518 0.0168659 0.0184829 0.0138447 0.0156055 0.0166028 0.0182653 0.0156055 0.0176462 0.0182653 0.0199849 0.0166028 0.0182653 0.018897 0.0204197 0.0182653 0.0199849 0.0204197 0.0218439 0.0176462 0.0200599 0.0199849 0.0218092 0.0200599 0.0227551 0.0218092 0.0238147 0.0199849 0.0218092 0.0218439 0.0230519 0.0218092 0.0238147 0.0230519 0.0240135 0.018897 0.0204197 0.0199518 0.0212156 0.0204197 0.0218439 0.0212156 0.0221804 0.0199518 0.0212156 0.0184829 0.0199181 0.0212156 0.0221804 0.0199181 0.0209751 0.0218439 0.0230519 0.0221804 0.0229272 0.0230519 0.0240135 0.0229272 0.0234532 0.0221804 0.0229272 0.0209751 0.0215922 0.0229272 0.0234532 0.0215922 0.0218435 0 0.00154211 0 0.00145183 0.00154211 0.00308547 0.00145183 0.00290344 0 0.00145183 0 0.00113381 0.00145183 0.00290344 0.00113381 0.00227186 0.00308547 0.00463041 0.00290344 0.00435192 0.00463041 0.00617514 0.00435192 0.00578996 0.00290344 0.00435192 0.00227186 0.0034169 0.00435192 0.00578996 0.0034169 0.00456754 0 0.00113381 0 0.00069393 0.00113381 0.00227186 0.00069393 0.00138209 0 0.00069393 0 0.000253667 0.00069393 0.00138209 0.000253667 0.000493539 0.00227186 0.0034169 0.00138209 0.00206315 0.0034169 0.00456754 0.00206315 0.0027435 0.00138209 0.00206315 0.000493539 0.000702429 0.00206315 0.0027435 0.000702429 0.000860262 0.00617514 0.00771441 0.00578996 0.00720556 0.00771441 0.00923928 0.00720556 0.0085825 0.00578996 0.00720556 0.00456754 0.0057148 0.00720556 0.0085825 0.0057148 0.00684075 0.00923928 0.0107411 0.0085825 0.00989981 0.0107411 0.0122225 0.00989981 0.0111307 0.0085825 0.00989981 0.00684075 0.00792233 0.00989981 0.0111307 0.00792233 0.00893811 0.00456754 0.0057148 0.0027435 0.00343638 0.0057148 0.00684075 0.00343638 0.00415284 0.0027435 0.00343638 0.000860262 0.000951607 0.00343638 0.00415284 0.000951607 0.000979034 0.00684075 0.00792233 0.00415284 0.00488497 0.00792233 0.00893811 0.00488497 0.00559247 0.00415284 0.00488497 0.000979034 0.000971503 0.00488497 0.00559247 0.000971503 0.000969803 0 0.000253667 0 -0.000351436 0.000253667 0.000493539 -0.000351436 -0.000701828 0 -0.000351436 0 -0.00101895 -0.000351436 -0.000701828 -0.00101895 -0.00205237 0.000493539 0.000702429 -0.000701828 -0.00105404 0.000702429 0.000860262 -0.00105404 -0.00142164 -0.000701828 -0.00105404 -0.00205237 -0.00310763 -0.00105404 -0.00142164 -0.00310763 -0.00417959 0 -0.00101895 0 -0.00153295 -0.00101895 -0.00205237 -0.00153295 -0.00308934 0 -0.00153295 0 -0.00205242 -0.00153295 -0.00308934 -0.00205242 -0.00411329 -0.00205237 -0.00310763 -0.00308934 -0.00469535 -0.00310763 -0.00417959 -0.00469535 -0.00637761 -0.00308934 -0.00469535 -0.00411329 -0.00619467 -0.00469535 -0.00637761 -0.00619467 -0.00831912 0.000860262 0.000951607 -0.00142164 -0.00183756 0.000951607 0.000979034 -0.00183756 -0.00235577 -0.00142164 -0.00183756 -0.00417959 -0.00525219 -0.00183756 -0.00235577 -0.00525219 -0.00631521 0.000979034 0.000971503 -0.00235577 -0.00303193 0.000971503 0.000969803 -0.00303193 -0.00387889 -0.00235577 -0.00303193 -0.00631521 -0.00739661 -0.00303193 -0.00387889 -0.00739661 -0.00858765 -0.00417959 -0.00525219 -0.00637761 -0.00815172 -0.00525219 -0.00631521 -0.00815172 -0.0100039 -0.00637761 -0.00815172 -0.00831912 -0.0105279 -0.00815172 -0.0100039 -0.0105279 -0.0128804 -0.00631521 -0.00739661 -0.0100039 -0.0118819 -0.00739661 -0.00858765 -0.0118819 -0.0137253 -0.0100039 -0.0118819 -0.0128804 -0.0154291 -0.0118819 -0.0137253 -0.0154291 -0.0181705 0.0122225 0.0137104 0.0111307 0.0122491 0.0137104 0.015251 0.0122491 0.0132552 0.0111307 0.0122491 0.00893811 0.00986718 0.0122491 0.0132552 0.00986718 0.0106731 0.015251 0.0168659 0.0132552 0.0142126 0.0168659 0.0184829 0.0142126 0.0152421 0.0132552 0.0142126 0.0106731 0.0112941 0.0142126 0.0152421 0.0112941 0.0116851 0.00893811 0.00986718 0.00559247 0.0062097 0.00986718 0.0106731 0.0062097 0.00667313 0.00559247 0.0062097 0.000969803 0.000983546 0.0062097 0.00667313 0.000983546 0.000952534 0.0106731 0.0112941 0.00667313 0.00693492 0.0112941 0.0116851 0.00693492 0.00693252 0.00667313 0.00693492 0.000952534 0.000768459 0.00693492 0.00693252 0.000768459 0.000354293 0.0184829 0.0199181 0.0152421 0.0164159 0.0199181 0.0209751 0.0164159 0.0176008 0.0152421 0.0164159 0.0116851 0.0119035 0.0164159 0.0176008 0.0119035 0.0121116 0.0209751 0.0215922 0.0176008 0.0184414 0.0215922 0.0218435 0.0184414 0.0185945 0.0176008 0.0184414 0.0121116 0.012383 0.0184414 0.0185945 0.012383 0.0124778 0.0116851 0.0119035 0.00693252 0.00656993 0.0119035 0.0121116 0.00656993 0.00581838 0.00693252 0.00656993 0.000354293 -0.000307035 0.00656993 0.00581838 -0.000307035 -0.00126274 0.0121116 0.012383 0.00581838 0.00487496 0.012383 0.0124778 0.00487496 0.00407563 0.00581838 0.00487496 -0.00126274 -0.00262727 0.00487496 0.00407563 -0.00262727 -0.00436793 0.000969803 0.000983546 -0.00387889 -0.00482647 0.000983546 0.000952534 -0.00482647 -0.00574584 -0.00387889 -0.00482647 -0.00858765 -0.0100142 -0.00482647 -0.00574584 -0.0100142 -0.0117314 0.000952534 0.000768459 -0.00574584 -0.00656159 0.000768459 0.000354293 -0.00656159 -0.0073543 -0.00574584 -0.00656159 -0.0117314 -0.0136201 -0.00656159 -0.0073543 -0.0136201 -0.0154471 -0.00858765 -0.0100142 -0.0137253 -0.0155458 -0.0100142 -0.0117314 -0.0155458 -0.0175029 -0.0137253 -0.0155458 -0.0181705 -0.0210058 -0.0155458 -0.0175029 -0.0210058 -0.0237905 -0.0117314 -0.0136201 -0.0175029 -0.0198466 -0.0136201 -0.0154471 -0.0198466 -0.0226751 -0.0175029 -0.0198466 -0.0237905 -0.0265036 -0.0198466 -0.0226751 -0.0265036 -0.0293986 0.000354293 -0.000307035 -0.0073543 -0.00830458 -0.000307035 -0.00126274 -0.00830458 -0.00952607 -0.0073543 -0.00830458 -0.0154471 -0.0171167 -0.00830458 -0.00952607 -0.0171167 -0.0188252 -0.00126274 -0.00262727 -0.00952607 -0.011062 -0.00262727 -0.00436793 -0.011062 -0.0130643 -0.00952607 -0.011062 -0.0188252 -0.020844 -0.011062 -0.0130643 -0.020844 -0.0232458 -0.0154471 -0.0171167 -0.0226751 -0.0257354 -0.0171167 -0.0188252 -0.0257354 -0.0286283 -0.0226751 -0.0257354 -0.0293986 -0.0328404 -0.0257354 -0.0286283 -0.0328404 -0.0368166 -0.0188252 -0.020844 -0.0286283 -0.0312941 -0.020844 -0.0232458 -0.0312941 -0.0340577 -0.0286283 -0.0312941 -0.0368166 -0.0407653 -0.0312941 -0.0340577 -0.0407653 -0.0442303 0 0 0.00829116 0.00941946 0 0 0.00941946 0.0101204 0.00829116 0.00941946 0.0151446 0.0167709 0.00941946 0.0101204 0.0167709 0.0182025 0 0 0.0101204 0.0102956 0 0 0.0102956 0.0101274 0.0101204 0.0102956 0.0182025 0.0192798 0.0102956 0.0101274 0.0192798 0.0197732 0.0151446 0.0167709 0.0200094 0.0221331 0.0167709 0.0182025 0.0221331 0.0241066 0.0200094 0.0221331 0.0227551 0.0254228 0.0221331 0.0241066 0.0254228 0.0276895 0.0182025 0.0192798 0.0241066 0.0258207 0.0192798 0.0197732 0.0258207 0.0269055 0.0241066 0.0258207 0.0276895 0.029324 0.0258207 0.0269055 0.029324 0.0302623 0 0 0.0101274 0.00989917 0 0 0.00989917 0.00966408 0.0101274 0.00989917 0.0197732 0.0195116 0.00989917 0.00966408 0.0195116 0.0184605 0 0 0.00966408 0.00910315 0 0 0.00910315 0.00778155 0.00966408 0.00910315 0.0184605 0.016657 0.00910315 0.00778155 0.016657 0.0140927 0.0197732 0.0195116 0.0269055 0.0268586 0.0195116 0.0184605 0.0268586 0.0254007 0.0269055 0.0268586 0.0302623 0.0304133 0.0268586 0.0254007 0.0304133 0.0295018 0.0184605 0.016657 0.0254007 0.0227019 0.016657 0.0140927 0.0227019 0.0191702 0.0254007 0.0227019 0.0295018 0.0271869 0.0227019 0.0191702 0.0271869 0.0233259 0.0227551 0.0254228 0.0238147 0.0259693 0.0254228 0.0276895 0.0259693 0.0280264 0.0238147 0.0259693 0.0240135 0.0249035 0.0259693 0.0280264 0.0249035 0.025982 0.0276895 0.029324 0.0280264 0.0296307 0.029324 0.0302623 0.0296307 0.0305676 0.0280264 0.0296307 0.025982 0.0272713 0.0296307 0.0305676 0.0272713 0.0283883 0.0240135 0.0249035 0.0234532 0.0236958 0.0249035 0.025982 0.0236958 0.023713 0.0234532 0.0236958 0.0218435 0.0217405 0.0236958 0.023713 0.0217405 0.0211107 0.025982 0.0272713 0.023713 0.0237285 0.0272713 0.0283883 0.0237285 0.0238404 0.023713 0.0237285 0.0211107 0.0198241 0.0237285 0.0238404 0.0198241 0.0181078 0.0302623 0.0304133 0.0305676 0.0308344 0.0304133 0.0295018 0.0308344 0.030356 0.0305676 0.0308344 0.0283883 0.0287809 0.0308344 0.030356 0.0287809 0.0280981 0.0295018 0.0271869 0.030356 0.0286696 0.0271869 0.0233259 0.0286696 0.0250703 0.030356 0.0286696 0.0280981 0.0261995 0.0286696 0.0250703 0.0261995 0.0228223 0.0283883 0.0287809 0.0238404 0.0237101 0.0287809 0.0280981 0.0237101 0.0227308 0.0238404 0.0237101 0.0181078 0.0163974 0.0237101 0.0227308 0.0163974 0.014774 0.0280981 0.0261995 0.0227308 0.0205525 0.0261995 0.0228223 0.0205525 0.0172299 0.0227308 0.0205525 0.014774 0.0127532 0.0205525 0.0172299 0.0127532 0.00976515 0 0 0.00778155 0.00559972 0 0 0.00559972 0.00296679 0.00778155 0.00559972 0.0140927 0.0107136 0.00559972 0.00296679 0.0107136 0.00654888 0 0 0.00296679 0.00045367 0 0 0.00045367 -0.00176738 0.00296679 0.00045367 0.00654888 0.00178117 0.00045367 -0.00176738 0.00178117 -0.00338462 0.0140927 0.0107136 0.0191702 0.0149652 0.0107136 0.00654888 0.0149652 0.00977424 0.0191702 0.0149652 0.0233259 0.0180175 0.0149652 0.00977424 0.0180175 0.011343 0.00654888 0.00178117 0.00977424 0.00315625 0.00178117 -0.00338462 0.00315625 -0.00488927 0.00977424 0.00315625 0.011343 0.00318286 0.00315625 -0.00488927 0.00318286 -0.00655549 0 0 -0.00176738 -0.0041087 0 0 -0.0041087 -0.00713482 -0.00176738 -0.0041087 -0.00338462 -0.00892327 -0.0041087 -0.00713482 -0.00892327 -0.0149787 0 0 -0.00713482 -0.0109183 0 0 -0.0109183 -0.014853 -0.00713482 -0.0109183 -0.0149787 -0.0215775 -0.0109183 -0.014853 -0.0215775 -0.0283735 -0.00338462 -0.00892327 -0.00488927 -0.0137703 -0.00892327 -0.0149787 -0.0137703 -0.0227657 -0.00488927 -0.0137703 -0.00655549 -0.0175432 -0.0137703 -0.0227657 -0.0175432 -0.0290481 -0.0149787 -0.0215775 -0.0227657 -0.0316001 -0.0215775 -0.0283735 -0.0316001 -0.0405033 -0.0227657 -0.0316001 -0.0290481 -0.0404919 -0.0316001 -0.0405033 -0.0404919 -0.0519297 0.0233259 0.0180175 0.0250703 0.0191758 0.0180175 0.011343 0.0191758 0.0112623 0.0250703 0.0191758 0.0228223 0.0174823 0.0191758 0.0112623 0.0174823 0.00987786 0.011343 0.00318286 0.0112623 0.00191787 0.00318286 -0.00655549 0.00191787 -0.00858425 0.0112623 0.00191787 0.00987786 0.000249653 0.00191787 -0.00858425 0.000249653 -0.0109182 0.0228223 0.0174823 0.0172299 0.0127146 0.0174823 0.00987786 0.0127146 0.00642694 0.0172299 0.0127146 0.00976515 0.00557805 0.0127146 0.00642694 0.00557805 -2.75005e-05 0.00987786 0.000249653 0.00642694 -0.00236857 0.000249653 -0.0109182 -0.00236857 -0.0138283 0.00642694 -0.00236857 -2.75005e-05 -0.00774466 -0.00236857 -0.0138283 -0.00774466 -0.0183784 -0.00655549 -0.0175432 -0.00858425 -0.0204107 -0.0175432 -0.0290481 -0.0204107 -0.0336645 -0.00858425 -0.0204107 -0.0109182 -0.0235338 -0.0204107 -0.0336645 -0.0235338 -0.0379472 -0.0290481 -0.0404919 -0.0336645 -0.0479548 -0.0404919 -0.0519297 -0.0479548 -0.0626088 -0.0336645 -0.0479548 -0.0379472 -0.0542177 -0.0479548 -0.0626088 -0.0542177 -0.0715332 -0.0109182 -0.0235338 -0.0138283 -0.0274636 -0.0235338 -0.0379472 -0.0274636 -0.0428002 -0.0138283 -0.0274636 -0.0183784 -0.0319479 -0.0274636 -0.0428002 -0.0319479 -0.0475761 -0.0379472 -0.0542177 -0.0428002 -0.0597271 -0.0542177 -0.0715332 -0.0597271 -0.0779953 -0.0428002 -0.0597271 -0.0475761 -0.0644327 -0.0597271 -0.0779953 -0.0644327 -0.0824046 0.0218435 0.0217405 0.0185945 0.0179849 0.0217405 0.0211107 0.0179849 0.016731 0.0185945 0.0179849 0.0124778 0.0119487 0.0179849 0.016731 0.0119487 0.0105682 0.0211107 0.0198241 0.016731 0.0148462 0.0198241 0.0181078 0.0148462 0.0122524 0.016731 0.0148462 0.0105682 0.00848652 0.0148462 0.0122524 0.00848652 0.00583613 0.0124778 0.0119487 0.00407563 0.00347026 0.0119487 0.0105682 0.00347026 0.00258429 0.00407563 0.00347026 -0.00436793 -0.00612801 0.00347026 0.00258429 -0.00612801 -0.00760647 0.0105682 0.00848652 0.00258429 0.000846835 0.00848652 0.00583613 0.000846835 -0.00186203 0.00258429 0.000846835 -0.00760647 -0.00915485 0.000846835 -0.00186203 -0.00915485 -0.0115617 0.0181078 0.0163974 0.0122524 0.00917052 0.0163974 0.014774 0.00917052 0.00616081 0.0122524 0.00917052 0.00583613 0.00244923 0.00917052 0.00616081 0.00244923 -0.00172295 0.014774 0.0127532 0.00616081 0.00346369 0.0127532 0.00976515 0.00346369 0.000507472 0.00616081 0.00346369 -0.00172295 -0.00619845 0.00346369 0.000507472 -0.00619845 -0.0104887 0.00583613 0.00244923 -0.00186203 -0.00541188 0.00244923 -0.00172295 -0.00541188 -0.0099321 -0.00186203 -0.00541188 -0.0115617 -0.0151628 -0.00541188 -0.0099321 -0.0151628 -0.0197036 -0.00172295 -0.00619845 -0.0099321 -0.0155136 -0.00619845 -0.0104887 -0.0155136 -0.021536 -0.0099321 -0.0155136 -0.0197036 -0.0250781 -0.0155136 -0.021536 -0.0250781 -0.0313526 -0.00436793 -0.00612801 -0.0130643 -0.0156936 -0.00612801 -0.00760647 -0.0156936 -0.0186776 -0.0130643 -0.0156936 -0.0232458 -0.0260701 -0.0156936 -0.0186776 -0.0260701 -0.029506 -0.00760647 -0.00915485 -0.0186776 -0.0214075 -0.00915485 -0.0115617 -0.0214075 -0.0238278 -0.0186776 -0.0214075 -0.029506 -0.0334004 -0.0214075 -0.0238278 -0.0334004 -0.0369585 -0.0232458 -0.0260701 -0.0340577 -0.0371112 -0.0260701 -0.029506 -0.0371112 -0.0404193 -0.0340577 -0.0371112 -0.0442303 -0.0474638 -0.0371112 -0.0404193 -0.0474638 -0.0509034 -0.029506 -0.0334004 -0.0404193 -0.0441727 -0.0334004 -0.0369585 -0.0441727 -0.0484603 -0.0404193 -0.0441727 -0.0509034 -0.0545931 -0.0441727 -0.0484603 -0.0545931 -0.0587065 -0.0115617 -0.0151628 -0.0238278 -0.0267048 -0.0151628 -0.0197036 -0.0267048 -0.0306094 -0.0238278 -0.0267048 -0.0369585 -0.0397429 -0.0267048 -0.0306094 -0.0397429 -0.0425218 -0.0197036 -0.0250781 -0.0306094 -0.035348 -0.0250781 -0.0313526 -0.035348 -0.0407811 -0.0306094 -0.035348 -0.0425218 -0.0462573 -0.035348 -0.0407811 -0.0462573 -0.0509948 -0.0369585 -0.0397429 -0.0484603 -0.0525299 -0.0397429 -0.0425218 -0.0525299 -0.0556521 -0.0484603 -0.0525299 -0.0587065 -0.0635232 -0.0525299 -0.0556521 -0.0635232 -0.0683225 -0.0425218 -0.0462573 -0.0556521 -0.058516 -0.0462573 -0.0509948 -0.058516 -0.0623481 -0.0556521 -0.058516 -0.0683225 -0.0719954 -0.058516 -0.0623481 -0.0719954 -0.074987 0.00976515 0.00557805 0.000507472 -0.00358642 0.00557805 -2.75005e-05 -0.00358642 -0.00920147 0.000507472 -0.00358642 -0.0104887 -0.0148861 -0.00358642 -0.00920147 -0.0148861 -0.020178 -2.75005e-05 -0.00774466 -0.00920147 -0.0163539 -0.00774466 -0.0183784 -0.0163539 -0.0254278 -0.00920147 -0.0163539 -0.020178 -0.0267051 -0.0163539 -0.0254278 -0.0267051 -0.0343861 -0.0104887 -0.0148861 -0.021536 -0.0270878 -0.0148861 -0.020178 -0.0270878 -0.0321378 -0.021536 -0.0270878 -0.0313526 -0.0379397 -0.0270878 -0.0321378 -0.0379397 -0.0438143 -0.020178 -0.0267051 -0.0321378 -0.037569 -0.0267051 -0.0343861 -0.037569 -0.0440491 -0.0321378 -0.037569 -0.0438143 -0.0489065 -0.037569 -0.0440491 -0.0489065 -0.0543353 -0.0183784 -0.0319479 -0.0254278 -0.0371199 -0.0319479 -0.0475761 -0.0371199 -0.051534 -0.0254278 -0.0371199 -0.0343861 -0.0436581 -0.0371199 -0.051534 -0.0436581 -0.0555575 -0.0475761 -0.0644327 -0.051534 -0.0679199 -0.0644327 -0.0824046 -0.0679199 -0.0856036 -0.051534 -0.0679199 -0.0555575 -0.0705636 -0.0679199 -0.0856036 -0.0705636 -0.0880149 -0.0343861 -0.0436581 -0.0440491 -0.0517543 -0.0436581 -0.0555575 -0.0517543 -0.061308 -0.0440491 -0.0517543 -0.0543353 -0.0610197 -0.0517543 -0.061308 -0.0610197 -0.0691243 -0.0555575 -0.0705636 -0.061308 -0.0738973 -0.0705636 -0.0880149 -0.0738973 -0.0899306 -0.061308 -0.0738973 -0.0691243 -0.0791161 -0.0738973 -0.0899306 -0.0791161 -0.0920486 -0.0313526 -0.0