# vtk DataFile Version 3.0
#This file was generated by the deal.II library on 2021/4/23 at 0:45:39
ASCII
DATASET UNSTRUCTURED_GRID

FIELD FieldData 2
CYCLE 1 1 int
30
TIME 1 1 double
0.06
POINTS 5076 double
-1 -1 0
-0.75 -1 0
-1 -0.75 0
-0.75 -0.75 0
-0.75 -1 0
-0.5 -1 0
-0.75 -0.75 0
-0.5 -0.75 0
-1 -0.75 0
-0.75 -0.75 0
-1 -0.5 0
-0.75 -0.5 0
-0.75 -0.75 0
-0.5 -0.75 0
-0.75 -0.5 0
-0.5 -0.5 0
-0.5 -1 0
-0.25 -1 0
-0.5 -0.75 0
-0.25 -0.75 0
-0.5 -0.75 0
-0.25 -0.75 0
-0.5 -0.5 0
-0.25 -0.5 0
-1 -0.5 0
-0.75 -0.5 0
-1 -0.25 0
-0.75 -0.25 0
-0.75 -0.5 0
-0.5 -0.5 0
-0.75 -0.25 0
-0.5 -0.25 0
-1 -0.25 0
-0.75 -0.25 0
-1 0 0
-0.75 0 0
-0.75 -0.25 0
-0.5 -0.25 0
-0.75 0 0
-0.5 0 0
-0.5 -0.5 0
-0.25 -0.5 0
-0.5 -0.25 0
-0.25 -0.25 0
-0.5 -0.25 0
-0.25 -0.25 0
-0.5 0 0
-0.25 0 0
-1 0 0
-0.75 0 0
-1 0.25 0
-0.75 0.25 0
-0.75 0 0
-0.5 0 0
-0.75 0.25 0
-0.5 0.25 0
-1 0.25 0
-0.75 0.25 0
-1 0.5 0
-0.75 0.5 0
-0.75 0.25 0
-0.5 0.25 0
-0.75 0.5 0
-0.5 0.5 0
-0.5 0 0
-0.25 0 0
-0.5 0.25 0
-0.25 0.25 0
-0.25 0 0
0 0 0
-0.25 0.25 0
0 0.25 0
-0.5 0.25 0
-0.25 0.25 0
-0.5 0.5 0
-0.25 0.5 0
-0.25 0.25 0
0 0.25 0
-0.25 0.5 0
0 0.5 0
-1 0.5 0
-0.75 0.5 0
-1 0.75 0
-0.75 0.75 0
-0.75 0.5 0
-0.5 0.5 0
-0.75 0.75 0
-0.5 0.75 0
-1 0.75 0
-0.75 0.75 0
-1 1 0
-0.75 1 0
-0.75 0.75 0
-0.5 0.75 0
-0.75 1 0
-0.5 1 0
-0.5 0.5 0
-0.25 0.5 0
-0.5 0.75 0
-0.25 0.75 0
-0.25 0.5 0
0 0.5 0
-0.25 0.75 0
0 0.75 0
-0.5 0.75 0
-0.25 0.75 0
-0.5 1 0
-0.25 1 0
-0.25 0.75 0
0 0.75 0
-0.25 1 0
0 1 0
0.25 -1 0
0.375 -1 0
0.25 -0.875 0
0.375 -0.875 0
-0.25 -0.5 0
-0.125 -0.5 0
-0.25 -0.375 0
-0.125 -0.375 0
-0.25 -0.375 0
-0.125 -0.375 0
-0.25 -0.25 0
-0.125 -0.25 0
-0.25 -0.25 0
-0.125 -0.25 0
-0.25 -0.125 0
-0.125 -0.125 0
-0.25 -0.125 0
-0.125 -0.125 0
-0.25 0 0
-0.125 0 0
-0.125 -0.125 0
0 -0.125 0
-0.125 0 0
0 0 0
-0.25 -1 0
-0.125 -1 0
-0.25 -0.875 0
-0.125 -0.875 0
-0.125 -1 0
0 -1 0
-0.125 -0.875 0
0 -0.875 0
-0.25 -0.875 0
-0.125 -0.875 0
-0.25 -0.75 0
-0.125 -0.75 0
-0.125 -0.875 0
0 -0.875 0
-0.125 -0.75 0
0 -0.75 0
-0.25 -0.75 0
-0.125 -0.75 0
-0.25 -0.625 0
-0.125 -0.625 0
-0.125 -0.75 0
0 -0.75 0
-0.125 -0.625 0
0 -0.625 0
-0.25 -0.625 0
-0.125 -0.625 0
-0.25 -0.5 0
-0.125 -0.5 0
-0.125 -0.625 0
0 -0.625 0
-0.125 -0.5 0
0 -0.5 0
0 -1 0
0.125 -1 0
0 -0.875 0
0.125 -0.875 0
0.125 -1 0
0.25 -1 0
0.125 -0.875 0
0.25 -0.875 0
0 -0.875 0
0.125 -0.875 0
0 -0.75 0
0.125 -0.75 0
0.125 -0.875 0
0.25 -0.875 0
0.125 -0.75 0
0.25 -0.75 0
0.9375 -0.0625 0
1 -0.0625 0
0.9375 0 0
1 0 0
0.625 -0.75 0
0.6875 -0.75 0
0.625 -0.6875 0
0.6875 -0.6875 0
0.6875 -0.75 0
0.75 -0.75 0
0.6875 -0.6875 0
0.75 -0.6875 0
0.75 -0.75 0
0.8125 -0.75 0
0.75 -0.6875 0
0.8125 -0.6875 0
0.8125 -0.75 0
0.875 -0.75 0
0.8125 -0.6875 0
0.875 -0.6875 0
0.25 -0.375 0
0.3125 -0.375 0
0.25 -0.3125 0
0.3125 -0.3125 0
0.25 -0.25 0
0.3125 -0.25 0
0.25 -0.1875 0
0.3125 -0.1875 0
0.25 -0.1875 0
0.3125 -0.1875 0
0.25 -0.125 0
0.3125 -0.125 0
0.5625 -0.75 0
0.625 -0.75 0
0.5625 -0.6875 0
0.625 -0.6875 0
0.5 -0.6875 0
0.5625 -0.6875 0
0.5 -0.625 0
0.5625 -0.625 0
0.5625 -0.6875 0
0.625 -0.6875 0
0.5625 -0.625 0
0.625 -0.625 0
0.5 -0.625 0
0.5625 -0.625 0
0.5 -0.5625 0
0.5625 -0.5625 0
0.5 -0.5625 0
0.5625 -0.5625 0
0.5 -0.5 0
0.5625 -0.5 0
0.9375 -0.75 0
1 -0.75 0
0.9375 -0.6875 0
1 -0.6875 0
0.875 -0.6875 0
0.9375 -0.6875 0
0.875 -0.625 0
0.9375 -0.625 0
0.9375 -0.6875 0
1 -0.6875 0
0.9375 -0.625 0
1 -0.625 0
0.9375 -0.625 0
1 -0.625 0
0.9375 -0.5625 0
1 -0.5625 0
0.3125 -0.5 0
0.375 -0.5 0
0.3125 -0.4375 0
0.375 -0.4375 0
0.25 -0.4375 0
0.3125 -0.4375 0
0.25 -0.375 0
0.3125 -0.375 0
0.3125 -0.4375 0
0.375 -0.4375 0
0.3125 -0.375 0
0.375 -0.375 0
0.375 -0.5 0
0.4375 -0.5 0
0.375 -0.4375 0
0.4375 -0.4375 0
0.4375 -0.5 0
0.5 -0.5 0
0.4375 -0.4375 0
0.5 -0.4375 0
0.3125 -0.125 0
0.375 -0.125 0
0.3125 -0.0625 0
0.375 -0.0625 0
0.25 -0.0625 0
0.3125 -0.0625 0
0.25 0 0
0.3125 0 0
0.3125 -0.0625 0
0.375 -0.0625 0
0.3125 0 0
0.375 0 0
0.375 -0.0625 0
0.4375 -0.0625 0
0.375 0 0
0.4375 0 0
0.375 -0.6875 0
0.4375 -0.6875 0
0.375 -0.625 0
0.4375 -0.625 0
0.3125 -0.625 0
0.375 -0.625 0
0.3125 -0.5625 0
0.375 -0.5625 0
0.375 -0.625 0
0.4375 -0.625 0
0.375 -0.5625 0
0.4375 -0.5625 0
0.4375 -0.625 0
0.5 -0.625 0
0.4375 -0.5625 0
0.5 -0.5625 0
0.375 -0.5625 0
0.4375 -0.5625 0
0.375 -0.5 0
0.4375 -0.5 0
0.4375 -0.5625 0
0.5 -0.5625 0
0.4375 -0.5 0
0.5 -0.5 0
0.625 -1 0
0.6875 -1 0
0.625 -0.9375 0
0.6875 -0.9375 0
0.6875 -1 0
0.75 -1 0
0.6875 -0.9375 0
0.75 -0.9375 0
0.625 -0.9375 0
0.6875 -0.9375 0
0.625 -0.875 0
0.6875 -0.875 0
0 -0.25 0
0.0625 -0.25 0
0 -0.1875 0
0.0625 -0.1875 0
0 -0.1875 0
0.0625 -0.1875 0
0 -0.125 0
0.0625 -0.125 0
0.375 -0.875 0
0.4375 -0.875 0
0.375 -0.8125 0
0.4375 -0.8125 0
0.25 -0.75 0
0.3125 -0.75 0
0.25 -0.6875 0
0.3125 -0.6875 0
0.3125 -0.75 0
0.375 -0.75 0
0.3125 -0.6875 0
0.375 -0.6875 0
0.25 -0.6875 0
0.3125 -0.6875 0
0.25 -0.625 0
0.3125 -0.625 0
0.3125 -0.6875 0
0.375 -0.6875 0
0.3125 -0.625 0
0.375 -0.625 0
0.5 -1 0
0.5625 -1 0
0.5 -0.9375 0
0.5625 -0.9375 0
0.5625 -1 0
0.625 -1 0
0.5625 -0.9375 0
0.625 -0.9375 0
0.5 -0.9375 0
0.5625 -0.9375 0
0.5 -0.875 0
0.5625 -0.875 0
0.5625 -0.9375 0
0.625 -0.9375 0
0.5625 -0.875 0
0.625 -0.875 0
0.75 -1 0
0.8125 -1 0
0.75 -0.9375 0
0.8125 -0.9375 0
0.8125 -1 0
0.875 -1 0
0.8125 -0.9375 0
0.875 -0.9375 0
0.75 -0.9375 0
0.8125 -0.9375 0
0.75 -0.875 0
0.8125 -0.875 0
0.8125 -0.9375 0
0.875 -0.9375 0
0.8125 -0.875 0
0.875 -0.875 0
0.875 -1 0
0.9375 -1 0
0.875 -0.9375 0
0.9375 -0.9375 0
0.9375 -1 0
1 -1 0
0.9375 -0.9375 0
1 -0.9375 0
0.875 -0.9375 0
0.9375 -0.9375 0
0.875 -0.875 0
0.9375 -0.875 0
0.9375 -0.9375 0
1 -0.9375 0
0.9375 -0.875 0
1 -0.875 0
0.875 -0.875 0
0.9375 -0.875 0
0.875 -0.8125 0
0.9375 -0.8125 0
0.9375 -0.875 0
1 -0.875 0
0.9375 -0.8125 0
1 -0.8125 0
0.875 -0.8125 0
0.9375 -0.8125 0
0.875 -0.75 0
0.9375 -0.75 0
0.9375 -0.8125 0
1 -0.8125 0
0.9375 -0.75 0
1 -0.75 0
0 -0.125 0
0.0625 -0.125 0
0 -0.0625 0
0.0625 -0.0625 0
0.0625 -0.125 0
0.125 -0.125 0
0.0625 -0.0625 0
0.125 -0.0625 0
0 -0.0625 0
0.0625 -0.0625 0
0 0 0
0.0625 0 0
0.0625 -0.0625 0
0.125 -0.0625 0
0.0625 0 0
0.125 0 0
0.125 -0.125 0
0.1875 -0.125 0
0.125 -0.0625 0
0.1875 -0.0625 0
0.1875 -0.125 0
0.25 -0.125 0
0.1875 -0.0625 0
0.25 -0.0625 0
0.125 -0.0625 0
0.1875 -0.0625 0
0.125 0 0
0.1875 0 0
0.1875 -0.0625 0
0.25 -0.0625 0
0.1875 0 0
0.25 0 0
0.375 -1 0
0.4375 -1 0
0.375 -0.9375 0
0.4375 -0.9375 0
0.4375 -1 0
0.5 -1 0
0.4375 -0.9375 0
0.5 -0.9375 0
0.375 -0.9375 0
0.4375 -0.9375 0
0.375 -0.875 0
0.4375 -0.875 0
0.4375 -0.9375 0
0.5 -0.9375 0
0.4375 -0.875 0
0.5 -0.875 0
0.25 -0.875 0
0.3125 -0.875 0
0.25 -0.8125 0
0.3125 -0.8125 0
0.3125 -0.875 0
0.375 -0.875 0
0.3125 -0.8125 0
0.375 -0.8125 0
0.25 -0.8125 0
0.3125 -0.8125 0
0.25 -0.75 0
0.3125 -0.75 0
0.3125 -0.8125 0
0.375 -0.8125 0
0.3125 -0.75 0
0.375 -0.75 0
0 -0.75 0
0.0625 -0.75 0
0 -0.6875 0
0.0625 -0.6875 0
0.0625 -0.75 0
0.125 -0.75 0
0.0625 -0.6875 0
0.125 -0.6875 0
0 -0.6875 0
0.0625 -0.6875 0
0 -0.625 0
0.0625 -0.625 0
0.0625 -0.6875 0
0.125 -0.6875 0
0.0625 -0.625 0
0.125 -0.625 0
0.125 -0.75 0
0.1875 -0.75 0
0.125 -0.6875 0
0.1875 -0.6875 0
0.1875 -0.75 0
0.25 -0.75 0
0.1875 -0.6875 0
0.25 -0.6875 0
0.125 -0.6875 0
0.1875 -0.6875 0
0.125 -0.625 0
0.1875 -0.625 0
0.1875 -0.6875 0
0.25 -0.6875 0
0.1875 -0.625 0
0.25 -0.625 0
0 -0.625 0
0.0625 -0.625 0
0 -0.5625 0
0.0625 -0.5625 0
0.0625 -0.625 0
0.125 -0.625 0
0.0625 -0.5625 0
0.125 -0.5625 0
0 -0.5625 0
0.0625 -0.5625 0
0 -0.5 0
0.0625 -0.5 0
0.0625 -0.5625 0
0.125 -0.5625 0
0.0625 -0.5 0
0.125 -0.5 0
-0.125 -0.5 0
-0.0625 -0.5 0
-0.125 -0.4375 0
-0.0625 -0.4375 0
-0.0625 -0.5 0
0 -0.5 0
-0.0625 -0.4375 0
0 -0.4375 0
-0.125 -0.4375 0
-0.0625 -0.4375 0
-0.125 -0.375 0
-0.0625 -0.375 0
-0.0625 -0.4375 0
0 -0.4375 0
-0.0625 -0.375 0
0 -0.375 0
-0.125 -0.375 0
-0.0625 -0.375 0
-0.125 -0.3125 0
-0.0625 -0.3125 0
-0.0625 -0.375 0
0 -0.375 0
-0.0625 -0.3125 0
0 -0.3125 0
-0.125 -0.3125 0
-0.0625 -0.3125 0
-0.125 -0.25 0
-0.0625 -0.25 0
-0.0625 -0.3125 0
0 -0.3125 0
-0.0625 -0.25 0
0 -0.25 0
-0.125 -0.25 0
-0.0625 -0.25 0
-0.125 -0.1875 0
-0.0625 -0.1875 0
-0.0625 -0.25 0
0 -0.25 0
-0.0625 -0.1875 0
0 -0.1875 0
-0.125 -0.1875 0
-0.0625 -0.1875 0
-0.125 -0.125 0
-0.0625 -0.125 0
-0.0625 -0.1875 0
0 -0.1875 0
-0.0625 -0.125 0
0 -0.125 0
0.78125 -0.4375 0
0.8125 -0.4375 0
0.78125 -0.40625 0
0.8125 -0.40625 0
0.78125 -0.40625 0
0.8125 -0.40625 0
0.78125 -0.375 0
0.8125 -0.375 0
0.78125 -0.34375 0
0.8125 -0.34375 0
0.78125 -0.3125 0
0.8125 -0.3125 0
0.75 -0.3125 0
0.78125 -0.3125 0
0.75 -0.28125 0
0.78125 -0.28125 0
0.75 -0.28125 0
0.78125 -0.28125 0
0.75 -0.25 0
0.78125 -0.25 0
0.78125 -0.28125 0
0.8125 -0.28125 0
0.78125 -0.25 0
0.8125 -0.25 0
0.8125 -0.3125 0
0.84375 -0.3125 0
0.8125 -0.28125 0
0.84375 -0.28125 0
0.8125 -0.28125 0
0.84375 -0.28125 0
0.8125 -0.25 0
0.84375 -0.25 0
0.9375 -0.375 0
0.96875 -0.375 0
0.9375 -0.34375 0
0.96875 -0.34375 0
0.96875 -0.375 0
1 -0.375 0
0.96875 -0.34375 0
1 -0.34375 0
0.9375 -0.34375 0
0.96875 -0.34375 0
0.9375 -0.3125 0
0.96875 -0.3125 0
0.96875 -0.34375 0
1 -0.34375 0
0.96875 -0.3125 0
1 -0.3125 0
0.9375 -0.3125 0
0.96875 -0.3125 0
0.9375 -0.28125 0
0.96875 -0.28125 0
0.96875 -0.3125 0
1 -0.3125 0
0.96875 -0.28125 0
1 -0.28125 0
0.9375 -0.28125 0
0.96875 -0.28125 0
0.9375 -0.25 0
0.96875 -0.25 0
0.96875 -0.28125 0
1 -0.28125 0
0.96875 -0.25 0
1 -0.25 0
0.59375 -0.25 0
0.625 -0.25 0
0.59375 -0.21875 0
0.625 -0.21875 0
0.5625 -0.21875 0
0.59375 -0.21875 0
0.5625 -0.1875 0
0.59375 -0.1875 0
0.59375 -0.21875 0
0.625 -0.21875 0
0.59375 -0.1875 0
0.625 -0.1875 0
0.65625 -0.25 0
0.6875 -0.25 0
0.65625 -0.21875 0
0.6875 -0.21875 0
0.6875 -0.25 0
0.71875 -0.25 0
0.6875 -0.21875 0
0.71875 -0.21875 0
0.71875 -0.25 0
0.75 -0.25 0
0.71875 -0.21875 0
0.75 -0.21875 0
0.71875 -0.21875 0
0.75 -0.21875 0
0.71875 -0.1875 0
0.75 -0.1875 0
0.71875 -0.1875 0
0.75 -0.1875 0
0.71875 -0.15625 0
0.75 -0.15625 0
0.625 -0.0625 0
0.65625 -0.0625 0
0.625 -0.03125 0
0.65625 -0.03125 0
0.65625 -0.0625 0
0.6875 -0.0625 0
0.65625 -0.03125 0
[...]
POINT_DATA 5076
SCALARS U double 1
LOOKUP_TABLE default
0 0 0 -2.7868e-07 0 0 -2.7868e-07 -4.64012e-06 0 -2.7868e-07 0 -4.95937e-07 -2.7868e-07 -4.64012e-06 -4.95937e-07 -8.66194e-06 0 0 -4.64012e-06 2.0853e-05 -4.64012e-06 2.0853e-05 -8.66194e-06 5.01089e-05 0 -4.95937e-07 0 -6.87804e-07 -4.95937e-07 -8.66194e-06 -6.87804e-07 -6.05726e-06 0 -6.87804e-07 0 -4.35012e-07 -6.87804e-07 -6.05726e-06 -4.35012e-07 -2.06897e-06 -8.66194e-06 5.01089e-05 -6.05726e-06 4.76783e-05 -6.05726e-06 4.76783e-05 -2.06897e-06 2.37749e-05 0 -4.35012e-07 0 -1.46437e-07 -4.35012e-07 -2.06897e-06 -1.46437e-07 4.10871e-07 0 -1.46437e-07 0 4.50043e-08 -1.46437e-07 4.10871e-07 4.50043e-08 -1.36778e-07 -2.06897e-06 2.37749e-05 4.10871e-07 -2.16867e-06 2.37749e-05 0 -2.16867e-06 0 4.10871e-07 -2.16867e-06 -1.36778e-07 2.97299e-08 -2.16867e-06 0 2.97299e-08 0 0 4.50043e-08 0 -5.33573e-09 4.50043e-08 -1.36778e-07 -5.33573e-09 2.97672e-08 0 -5.33573e-09 0 0 -5.33573e-09 2.97672e-08 0 0 -1.36778e-07 2.97299e-08 2.97672e-08 2.81697e-08 2.97299e-08 0 2.81697e-08 0 2.97672e-08 2.81697e-08 0 0 2.81697e-08 0 0 0 0 0 0.000495351 0.000811426 5.01089e-05 0.000192027 4.88936e-05 0.000223885 4.88936e-05 0.000223885 4.76783e-05 0.000196146 4.76783e-05 0.000196146 3.57266e-05 0.000111692 3.57266e-05 0.000111692 2.37749e-05 1.18874e-05 0.000111692 0.000326278 1.18874e-05 0 0 0 1.04265e-05 4.15432e-05 0 0 4.15432e-05 0.000116459 1.04265e-05 4.15432e-05 2.0853e-05 8.9774e-05 4.15432e-05 0.000116459 8.9774e-05 0.000248722 2.0853e-05 8.9774e-05 3.54809e-05 0.000143607 8.9774e-05 0.000248722 0.000143607 0.00041035 3.54809e-05 0.000143607 5.01089e-05 0.000192027 0.000143607 0.00041035 0.000192027 0.000550054 0 0 0.000116459 0.0002623 0 0 0.0002623 0.000495351 0.000116459 0.0002623 0.000248722 0.000569034 0.0002623 0.000495351 0.000569034 0.00111841 0.000831329 0 0 0 0.00306671 0.00303225 0.00418733 0.00415363 0.00303225 0.00279017 0.00415363 0.00382371 0.00279017 0.00232906 0.00382371 0.00319978 0.00232906 0.00167154 0.00319978 0.00230199 0.00312917 0.00421602 0.00308417 0.00417565 0.00283719 0.00384272 0.00237502 0.0032212 0.00237502 0.0032212 0.00170261 0.0023169 0.00291511 0.00306671 0.00398168 0.00418733 0.00359418 0.00398168 0.00464278 0.00515765 0.00398168 0.00418733 0.00515765 0.00543108 0.00464278 0.00515765 0.00571464 0.00636799 0.00571464 0.00636799 0.00672048 0.00749068 0.000874228 0 0.00120352 0 0.00230199 0.00120352 0.00299728 0.00157549 0.00120352 0 0.00157549 0 0.00157549 0 0.00195502 0 0.00362029 0.00465345 0.00400966 0.00516999 0.00297404 0.00400966 0.00312917 0.00421602 0.00400966 0.00516999 0.00421602 0.00544389 0.00465345 0.00571795 0.00516999 0.00637274 0.00571795 0.00672048 0.00637274 0.00749233 0.0023169 0.00300413 0.00121123 0.00157891 0.000890484 0.00121123 0 0 0.00121123 0.00157891 0 0 0.00157891 0.00195685 0 0 0.00253238 0.00308746 0.00325431 0.00397517 0.00254514 0.00325431 0.0031088 0.00398225 0.00325431 0.00397517 0.00398225 0.0048851 0.00397517 0.00464278 0.0048851 0.00571464 0.00398225 0.0048851 0.00465345 0.00571795 0.0048851 0.00571464 0.00571795 0.00672048 0 0 0.000613506 0.000606701 0 0 0.000606701 0.00055364 0.000613506 0.000606701 0.00130026 0.001274 0.000557268 0.000887093 0.000462998 0.000741196 0.000462998 0.000741196 0.000326278 0.000522798 0.000811426 0.0009811 0.0013026 0.00157532 0.00111841 0.00148486 0.00150668 0.00199161 0.00148486 0.00187566 0.00199161 0.00253238 0.00150668 0.00199161 0.00191204 0.00254514 0.00199161 0.00253238 0.00254514 0.00325431 0 0 0.000537976 0.000590267 0 0 0.000590267 0.000613506 0.000537976 0.000590267 0.0011339 0.00124506 0.000590267 0.000613506 0.00124506 0.00130026 0 0 0.00055364 0.000459823 0 0 0.000459823 0.000329555 0.00055364 0.000459823 0.00116825 0.000978897 0.000459823 0.000329555 0.000978897 0.000698244 0 0 0.000329555 0.000172202 0 0 0.000172202 0 0.000329555 0.000172202 0.000698244 0.000364293 0.000172202 0 0.000364293 0 0.000698244 0.000364293 0.00112641 0.000594307 0.000364293 0 0.000594307 0 0.00112641 0.000594307 0.00167154 0.000874228 0.000594307 0 0.000874228 0 0.000326278 0.000522798 0.000163139 0.000272142 0.000522798 0.000805859 0.000272142 0.000421043 0.000163139 0.000272142 0 0 0.000272142 0.000421043 0 0 0.000805859 0.00118636 0.000421043 0.000625183 0.00118636 0.00170261 0.000625183 0.000890484 0.000421043 0.000625183 0 0 0.000625183 0.000890484 0 0 0 0 0.000405713 0.000469871 0 0 0.000469871 0.000537976 0.000405713 0.000469871 0.000811426 0.0009811 0.000469871 0.000537976 0.0009811 0.0011339 0.000495351 0.000653389 0.000806879 0.00103641 0.000653389 0.000811426 0.00103641 0.0013026 0.000806879 0.00103641 0.00111841 0.00148486 0.00103641 0.0013026 0.00148486 0.00187566 0.000248722 0.000408878 0.000329536 0.000512594 0.000408878 0.000569034 0.000512594 0.000766899 0.000329536 0.000512594 0.00041035 0.000637905 0.000512594 0.000766899 0.000637905 0.000958398 0.000569034 0.000843721 0.000766899 0.00109232 0.000843721 0.00111841 0.00109232 0.00150668 0.000766899 0.00109232 0.000958398 0.00137594 0.00109232 0.00150668 0.00137594 0.00191204 0.00041035 0.000637905 0.000480202 0.000761262 0.000637905 0.000958398 0.000761262 0.00115396 0.000480202 0.000761262 0.000550054 0.000867216 0.000761262 0.00115396 0.000867216 0.00132406 0.000192027 0.00037104 0.000207956 0.000371321 0.00037104 0.000550054 0.000371321 0.000615556 0.000207956 0.000371321 0.000223885 0.000381799 0.000371321 0.000615556 0.000381799 0.000632069 0.000223885 0.000381799 0.000210016 0.000370849 0.000381799 0.000632069 0.000370849 0.000619874 0.000210016 0.000370849 0.000196146 0.000336367 0.000370849 0.000619874 0.000336367 0.000557268 0.000196146 0.000336367 0.000153919 0.000279134 0.000336367 0.000557268 0.000279134 0.000462998 0.000153919 0.000279134 0.000111692 0.000218985 0.000279134 0.000462998 0.000218985 0.000326278 0.00759174 0.00689417 0.00792523 0.00713001 0.00792523 0.00713001 0.00807885 0.00734741 0.0081801 0.00736197 0.0081058 0.00734556 0.00867914 0.0081058 0.00845479 0.00790792 0.00845479 0.00790792 0.00806098 0.00751767 0.00790792 0.00711081 0.00751767 0.00677427 0.00734556 0.00634024 0.00711081 0.00625415 0.00711081 0.00625415 0.00677427 0.0059229 0.00279798 0.00139337 0.00280269 0.00141994 0.00139337 0 0.00141994 0 0.00280269 0.00141994 0.0027969 0.00139577 0.00141994 0 0.00139577 0 0.0027969 0.00139577 0.00270568 0.00136997 0.00139577 0 0.00136997 0 0.00270568 0.00136997 0.0025988 0.00129554 0.00136997 0 0.00129554 0 0.00850275 0.00868367 0.00793664 0.00808971 0.00758939 0.00793664 0.00689895 0.00713089 0.00793664 0.00808971 0.00713089 0.00734776 0.00875945 0.00867967 0.00819328 0.00811082 0.00867967 0.00845372 0.00811082 0.00790968 0.00845372 0.00806098 0.00790968 0.0075173 0.00790968 0.0075173 0.00712109 0.00677268 0.00712109 0.00677268 0.00626113 0.00592203 0.00279885 0.0028035 0.00139381 0.00142036 0.0028035 0.00279764 0.00142036 0.00139615 0.00139381 0.00142036 0 0 0.00142036 0.00139615 0 0 0.00279764 0.00270631 0.00139615 0.00137029 0.00270631 0.0025993 0.00137029 0.00129579 0.00139615 0.00137029 0 0 0.00137029 0.00129579 0 0 0.00751767 0.00677427 0.0070239 0.00631901 0.0075173 0.0070239 0.00677268 0.00631919 0.00677427 0.0059229 0.00631901 0.00556107 0.00677268 0.00631919 0.00592203 0.00556143 0.0025988 0.00129554 0.00240042 0.00121761 0.00129554 0 0.00121761 0 0.00240042 0.00121761 0.00219182 0.00108594 0.00121761 0 0.00108594 0 0.00219182 0.00108594 0.00189292 0.000965451 0.00108594 0 0.000965451 0 0.00189292 0.000965451 0.00159127 0.000782235 0.000965451 0 0.000782235 0 0.0025993 0.00240077 0.00129579 0.00121779 0.00240077 0.00219204 0.00121779 0.00108606 0.00129579 0.00121779 0 0 0.00121779 0.00108606 0 0 0.00219204 0.00189304 0.00108606 0.00096552 0.00189304 0.00159133 0.00096552 0.000782271 0.00108606 0.00096552 0 0 0.00096552 0.000782271 0 0 0.00338366 0.00231548 0.00366105 0.00247296 0.00469235 0.00366105 0.0049882 0.00383931 0.00366105 0.00247296 0.00383931 0.00259967 0.00404847 0.00270123 0.00404275 0.00279798 0.00259967 0.00132132 0.00270123 0.00138446 0.00132132 0 0.00138446 0 0.00270123 0.00138446 0.00279798 0.00139337 0.00138446 0 0.00139337 0 0.00469426 0.00499033 0.00366263 0.00384074 0.00338521 0.00366263 0.0023166 0.00247395 0.00366263 0.00384074 0.00247395 0.00260061 0.00404989 0.00404408 0.00270215 0.00279885 0.00260061 0.00270215 0.0013218 0.00138493 0.00270215 0.00279885 0.00138493 0.00139381 0.0013218 0.00138493 0 0 0.00138493 0.00139381 0 0 0.00159127 0.000782235 0.00120142 0.000625763 0.000782235 0 0.000625763 0 0.00120142 0.000625763 0.000831329 0.000415665 0.000625763 0 0.000415665 0 0.00159133 0.00120143 0.000782271 0.000625777 0.00120143 0.000831329 0.000625777 0.000415665 0.000782271 0.000625777 0 0 0.000625777 0.000415665 0 0 0.00672048 0.00710558 0.00710641 0.00757579 0.00710558 0.00749068 0.00757579 0.00797125 0.00710641 0.00757579 0.00749233 0.00797193 0.00749068 0.00776255 0.00797125 0.00828654 0.00776255 0.00789178 0.00828654 0.00843446 0.00797125 0.00828654 0.00835101 0.00868991 0.00828654 0.00843446 0.00868991 0.00884364 0.00749233 0.00797193 0.00776467 0.0082877 0.00797193 0.00835101 0.0082877 0.00869033 0.00776467 0.0082877 0.00789385 0.00843661 0.0082877 0.00869033 0.00843661 0.00884571 0.00418733 0.00417048 0.00480921 0.00481033 0.00417048 0.00415363 0.00481033 0.00475391 0.00480921 0.00481033 0.00543108 0.0054653 0.00481033 0.00475391 0.0054653 0.00537371 0.00415363 0.00398867 0.00475391 0.00461527 0.00398867 0.00382371 0.00461527 0.00438193 0.00670237 0.00676957 0.00735779 0.00734659 0.00835101 0.00868991 0.00869033 0.00904789 0.00868991 0.00884364 0.00904789 0.0092112 0.00869033 0.00904789 0.00884571 0.00921181 0.00904789 0.0092112 0.00921181 0.00937914 0.00789178 0.0079842 0.00843446 0.00852809 0.0079842 0.00784952 0.00852809 0.00839608 0.00843446 0.00852809 0.00884364 0.00894737 0.00852809 0.00839608 0.00894737 0.00880967 0.00382371 0.00351174 0.00438193 0.00405179 0.00351174 0.00319978 0.00405179 0.00366905 0.00438193 0.00405179 0.00495434 0.00462238 0.00319978 0.00275089 0.00366905 0.00318252 0.00275089 0.00230199 0.00318252 0.00264964 0.00366905 0.00318252 0.00414078 0.0036331 0.00318252 0.00264964 0.0036331 0.00299728 0.0061464 0.00574904 0.0067625 0.00625188 0.00784952 0.00767672 0.00839608 0.00820279 0.00767672 0.00726108 0.00820279 0.00776684 0.00839608 0.00820279 0.00880967 0.00861184 0.00820279 0.00776684 0.00861184 0.00815103 0.00421602 0.00482995 0.00419584 0.00482918 0.00482995 0.00544389 0.00482918 0.00547945 0.00419584 0.00482918 0.00417565 0.00477992 0.00482918 0.00547945 0.00477992 0.0053878 0.00308417 0.00362991 0.00300342 0.00351187 0.00362991 0.00417565 0.00351187 0.00404484 0.00300342 0.00351187 0.00283719 0.00333995 0.00351187 0.00404484 0.00333995 0.00384272 0.00417565 0.00477992 0.00404484 0.00463435 0.00670823 0.00736196 0.00677608 0.00735071 0.00884364 0.00894737 0.0092112 0.00932147 0.00894737 0.00880967 0.00932147 0.00917868 0.0092112 0.00932147 0.00937914 0.00949295 0.00932147 0.00917868 0.00949295 0.00934808 0.00384272 0.00440511 0.00353196 0.00408384 0.00353196 0.00408384 0.0032212 0.00368072 0.00880967 0.00861184 0.00917868 0.00897508 0.00861184 0.00815103 0.00897508 0.00849803 0.00917868 0.00897508 0.00934808 0.00915438 0.00897508 0.00849803 0.00915438 0.00865885 0.0032212 0.00368072 0.00276905 0.00319412 0.00368072 0.00415605 0.00319412 0.00363949 0.00276905 0.00319412 0.0023169 0.00266052 0.00319412 0.00363949 0.00266052 0.00300413 0.00789385 0.00843661 0.00798765 0.00853072 0.00843661 0.00884571 0.00853072 0.00894796 0.00798765 0.00853072 0.00785436 0.00839843 0.00853072 0.00894796 0.00839843 0.00881081 0.00884571 0.00921181 0.00894796 0.00932015 0.00921181 0.00937914 0.00932015 0.0094912 0.00894796 0.00932015 0.00881081 0.00918295 0.00932015 0.0094912 0.00918295 0.00935158 0.00785436 0.00839843 0.00768135 0.00820426 0.00839843 0.00881081 0.00820426 0.00862173 0.00768135 0.00820426 0.00726581 0.00776908 0.00820426 0.00862173 0.00776908 0.0081535 0.00937914 0.00949295 0.0094912 0.00960744 0.00949295 0.00934808 0.00960744 0.00947224 0.0094912 0.00960744 0.00935158 0.00947513 0.00960744 0.00947224 0.00947513 0.00933148 0.00515765 0.00529437 0.00576282 0.00597075 0.00529437 0.00543108 0.00597075 0.00605697 0.00576282 0.00597075 0.00636799 0.00656871 0.00231548 0.00117647 0.00247296 0.00125734 0.00117647 0 0.00125734 0 0.00247296 0.00125734 0.00259967 0.00132132 0.00125734 0 0.00132132 0 0.00636799 0.00656871 0.00692933 0.00718 0.00692933 0.00718 0.00749068 0.00776255 0.0023166 0.00247395 0.00117697 0.00125785 0.00247395 0.00260061 0.00125785 0.0013218 0.00117697 0.00125785 0 0 0.00125785 0.0013218 0 0 0.00299728 0.00228639 0.00334937 0.00260365 0.00228639 0.00157549 0.00260365 0.00176525 0.00334937 0.00260365 0.00372691 0.00286372 0.00260365 0.00176525 0.00286372 0.00195502 0.00286372 0.00195502 0.00315031 0.00215432 0.00195502 0.000977509 0.00215432 0.00106938 0.000977509 0 0.00106938 0 0.00215432 0.00106938 0.00231548 0.00117647 0.00106938 0 0.00117647 0 0.00543108 0.0054653 0.00605697 0.00610878 0.0054653 0.00537371 0.00610878 0.00601364 0.00605697 0.00610878 0.00670237 0.00676957 0.00610878 0.00601364 0.00676957 0.00666398 0.00495434 0.00462238 0.00554627 0.00517852 0.00462238 0.00414078 0.00517852 0.00464603 0.00554627 0.00517852 0.0061464 0.00574904 0.00517852 0.00464603 0.00574904 0.005153 0.00414078 0.0036331 0.00464603 0.00406959 0.0036331 0.00299728 0.00406959 0.00334937 0.00464603 0.00406959 0.005153 0.00451214 0.00406959 0.00334937 0.00451214 0.00372691 0.005153 0.00451214 0.0056405 0.00493929 0.00451214 0.00372691 0.00493929 0.00407084 0.0056405 0.00493929 0.00610098 0.00534414 0.00493929 0.00407084 0.00534414 0.00440401 0.00544389 0.00606574 0.00547945 0.00611777 0.00606574 0.00670823 0.00611777 0.00677608 0.00547945 0.00611777 0.0053878 0.00602456 0.00611777 0.00677608 0.00602456 0.00667162 0.00516999 0.00577136 0.00530694 0.00597922 0.00577136 0.00637274 0.00597922 0.00657419 0.00530694 0.00597922 0.00544389 0.00606574 0.00637274 0.00693253 0.00657419 0.00718367 0.00693253 0.00749233 0.00718367 0.00776467 0.00415605 0.00465359 0.00363949 0.00407123 0.00465359 0.00516501 0.00407123 0.00451391 0.00363949 0.00407123 0.00300413 0.00335326 0.00407123 0.00451391 0.00335326 0.00372281 0.00300413 0.00335326 0.00229152 0.00260738 0.00229152 0.00260738 0.00157891 0.00176788 0.00260738 0.00285985 0.00176788 0.00195685 0.00285985 0.00315394 0.00195685 0.00215524 0.00195685 0.00215524 0.000978423 0.00106988 0.00215524 0.0023166 0.00106988 0.00117697 0.000978423 0.00106988 0 0 0.00106988 0.00117697 0 0 0.00516501 0.00564785 0.00451391 0.00494059 0.00564785 0.00610161 0.00494059 0.00534687 0.00451391 0.00494059 0.00372281 0.00407463 0.00494059 0.00534687 0.00407463 0.00440686 0.0026437 0.00280237 0.00309017 0.00327547 0.00280237 0.00291511 0.00327547 0.0034484 0.00309017 0.00327547 0.00359418 0.00378793 0.00327547 0.0034484 0.00378793 0.00398168 0.00167154 0.00127289 0.00198677 0.00151472 0.00127289 0.000874228 0.00151472 0.00103887 0.00198677 0.00151472 0.00230199 0.00175276 0.00151472 0.00103887 0.00175276 0.00120352 0.00269894 0.00312816 0.00286064 0.00331555 0.00312816 0.00362029 0.00331555 0.00381497 0.00286064 0.00331555 0.00297404 0.00349185 0.00331555 0.00381497 0.00349185 0.00400966 0.00170261 0.00200976 0.00129655 0.00153156 0.00200976 0.0023169 0.00153156 0.00176407 0.00129655 0.00153156 0.000890484 0.00105086 0.00153156 0.00176407 0.00105086 0.00121123 0.00187566 0.00208539 0.00220402 0.0024287 0.00208539 0.00227902 0.0024287 0.00266421 0.00220402 0.0024287 0.00253238 0.00280992 0.0024287 0.00266421 0.00280992 0.00308746 0.00227902 0.00247217 0.00266421 0.002888 0.00247217 0.0026437 0.002888 0.00309017 0.00266421 0.002888 0.00308746 0.0033579 0.002888 0.00309017 0.0033579 0.00359418 0.00308746 0.0033579 0.00353132 0.00382171 0.0033579 0.00359418 0.00382171 0.00411848 0.00353132 0.00382171 0.00397517 0.00430898 0.00382171 0.00411848 0.00430898 0.00464278 0.00191204 0.00222859 0.00212849 0.00245678 0.00222859 0.00254514 0.00245678 0.00282697 0.00212849 0.00245678 0.00232662 0.00269635 0.00245678 0.00282697 0.00269635 0.0031088 0.00232662 0.00269635 0.00252387 0.0029234 0.00269635 0.0031088 0.0029234 0.00338223 0.00252387 0.0029234 0.00269894 0.00312816 0.0029234 0.00338223 0.00312816 0.00362029 0.0031088 0.00354553 0.00338223 0.0038371 0.00354553 0.00398225 0.0038371 0.00431785 0.00338223 0.0038371 0.00362029 0.00413687 0.0038371 0.00431785 0.00413687 0.00465345 0.000606701 0.00058017 0.000940351 0.000895699 0.00058017 0.00055364 0.000895699 0.000860945 0.000940351 0.000895699 0.001274 0.001243 0.000895699 0.000860945 0.001243 0.00116825 0.0011339 0.00118948 0.00145308 0.0015356 0.00118948 0.00124506 0.0015356 0.00159582 0.00145308 0.0015356 0.0018243 0.00192825 0.0015356 0.00159582 0.00192825 0.00200633 0.00124506 0.00127266 0.00159582 0.00164553 0.00127266 0.00130026 0.00164553 0.00166414 0.00159582 0.00164553 0.00200633 0.0020704 0.00164553 0.00166414 0.0020704 0.00209837 0.0018243 0.00192825 0.00220389 0.00233171 0.00192825 0.00200633 0.00233171 0.00242803 0.00220389 0.00233171 0.0026437 0.00280237 0.00233171 0.00242803 0.00280237 0.00291511 0.00200633 0.0020704 0.00242803 0.00250928 0.0020704 0.00209837 0.00250928 0.0025382 0.00242803 0.00250928 0.00291511 0.00299091 0.00250928 0.0025382 0.00299091 0.00306671 0.00130026 0.00128713 0.00166414 0.00167212 0.00128713 0.001274 0.00167212 0.00163931 0.00166414 0.00167212 0.00209837 0.00210594 0.00167212 0.00163931 0.00210594 0.00206859 0.001274 0.001243 0.00163931 0.00159269 0.001243 0.00116825 0.00159269 0.00150222 0.00163931 0.00159269 0.00206859 0.00200871 0.00159269 0.00150222 0.00200871 0.0018985 0.00209837 0.00210594 0.0025382 0.00255558 0.00210594 0.00206859 0.00255558 0.00250404 0.0025382 0.00255558 0.00306671 0.00304948 0.00255558 0.00250404 0.00304948 0.00303225 0.00206859 0.00200871 0.00250404 0.00243873 0.00200871 0.0018985 0.00243873 0.00229892 0.00250404 0.00243873 0.00303225 0.00291121 0.00243873 0.00229892 0.00291121 0.00279017 0.00116825 0.00107357 0.00150222 0.00139612 0.00107357 0.000978897 0.00139612 0.00125146 0.00150222 0.00139612 0.0018985 0.00176346 0.00139612 0.00125146 0.00176346 0.00158412 0.000978897 0.00083857 0.00125146 0.00109263 0.00083857 0.000698244 0.00109263 0.000912329 0.00125146 0.00109263 0.00158412 0.00138216 0.00109263 0.000912329 0.00138216 0.00112641 0.0018985 0.00176346 0.00229892 0.00214491 0.00176346 0.00158412 0.00214491 0.00191844 0.00229892 0.00214491 0.00279017 0.00255962 0.00214491 0.00191844 0.00255962 0.00232906 0.00158412 0.00138216 0.00191844 0.00168019 0.00138216 0.00112641 0.00168019 0.00139898 0.00191844 0.00168019 0.00232906 0.0020003 0.00168019 0.00139898 0.0020003 0.00167154 0.000550054 0.000708635 0.000582805 0.000734951 0.000708635 0.000867216 0.000734951 0.000927733 0.000582805 0.000734951 0.000615556 0.000762571 0.000734951 0.000927733 0.000762571 0.000962593 0.000867216 0.00109564 0.000927733 0.0011357 0.00109564 0.00132406 0.0011357 0.00140336 0.000927733 0.0011357 0.000962593 0.00117945 0.0011357 0.00140336 0.00117945 0.00145529 0.000615556 0.000762571 0.000623812 0.000783408 0.000762571 0.000962593 0.000783408 0.00098777 0.000623812 0.000783408 0.000632069 0.000789292 0.000783408 0.00098777 0.000789292 0.000998819 0.000962593 0.00117945 0.00098777 0.00121212 0.00117945 0.00145529 0.00121212 0.00149978 0.00098777 0.00121212 0.000998819 0.0012248 0.00121212 0.00149978 0.0012248 0.0015168 0.00132406 0.00159586 0.00140336 0.00168575 0.00159586 0.00193015 0.00168575 0.00204066 0.00140336 0.00168575 0.00145529 0.001753 0.00168575 0.00204066 0.001753 0.00212345 0.00193015 0.00228042 0.00204066 0.00241191 0.00228042 0.00269894 0.00241191 0.00286064 0.00204066 0.00241191 0.00212345 0.00251087 0.00241191 0.00286064 0.00251087 0.00297404 0.00145529 0.001753 0.00149978 0.00180686 0.001753 0.00212345 0.00180686 0.00219023 0.00149978 0.00180686 0.0015168 0.00182768 0.00180686 0.00219023 0.00