# vtk DataFile Version 3.0
#This file was generated by the deal.II library on 2021/4/23 at 0:45:43
ASCII
DATASET UNSTRUCTURED_GRID

FIELD FieldData 2
CYCLE 1 1 int
111
TIME 1 1 double
0.222
POINTS 3588 double
-1 -1 0
-0.75 -1 0
-1 -0.75 0
-0.75 -0.75 0
-0.75 -1 0
-0.5 -1 0
-0.75 -0.75 0
-0.5 -0.75 0
-1 -0.75 0
-0.75 -0.75 0
-1 -0.5 0
-0.75 -0.5 0
-0.75 -0.75 0
-0.5 -0.75 0
-0.75 -0.5 0
-0.5 -0.5 0
-0.5 -1 0
-0.25 -1 0
-0.5 -0.75 0
-0.25 -0.75 0
-0.25 -1 0
0 -1 0
-0.25 -0.75 0
0 -0.75 0
-0.5 -0.75 0
-0.25 -0.75 0
-0.5 -0.5 0
-0.25 -0.5 0
-0.25 -0.75 0
0 -0.75 0
-0.25 -0.5 0
0 -0.5 0
-1 -0.5 0
-0.75 -0.5 0
-1 -0.25 0
-0.75 -0.25 0
-0.75 -0.5 0
-0.5 -0.5 0
-0.75 -0.25 0
-0.5 -0.25 0
-1 -0.25 0
-0.75 -0.25 0
-1 0 0
-0.75 0 0
-0.5 -0.5 0
-0.25 -0.5 0
-0.5 -0.25 0
-0.25 -0.25 0
-0.25 -0.5 0
0 -0.5 0
-0.25 -0.25 0
0 -0.25 0
0 -1 0
0.25 -1 0
0 -0.75 0
0.25 -0.75 0
-1 0 0
-0.75 0 0
-1 0.25 0
-0.75 0.25 0
-0.75 -0.25 0
-0.625 -0.25 0
-0.75 -0.125 0
-0.625 -0.125 0
-0.625 -0.25 0
-0.5 -0.25 0
-0.625 -0.125 0
-0.5 -0.125 0
-0.75 -0.125 0
-0.625 -0.125 0
-0.75 0 0
-0.625 0 0
-0.625 -0.125 0
-0.5 -0.125 0
-0.625 0 0
-0.5 0 0
-0.5 -0.25 0
-0.375 -0.25 0
-0.5 -0.125 0
-0.375 -0.125 0
-0.375 -0.25 0
-0.25 -0.25 0
-0.375 -0.125 0
-0.25 -0.125 0
-0.5 -0.125 0
-0.375 -0.125 0
-0.5 0 0
-0.375 0 0
-0.375 -0.125 0
-0.25 -0.125 0
-0.375 0 0
-0.25 0 0
0 -0.75 0
0.125 -0.75 0
0 -0.625 0
0.125 -0.625 0
0.125 -0.75 0
0.25 -0.75 0
0.125 -0.625 0
0.25 -0.625 0
0 -0.625 0
0.125 -0.625 0
0 -0.5 0
0.125 -0.5 0
0.125 -0.625 0
0.25 -0.625 0
0.125 -0.5 0
0.25 -0.5 0
0 -0.5 0
0.125 -0.5 0
0 -0.375 0
0.125 -0.375 0
0.125 -0.5 0
0.25 -0.5 0
0.125 -0.375 0
0.25 -0.375 0
0 -0.375 0
0.125 -0.375 0
0 -0.25 0
0.125 -0.25 0
0.75 -1 0
0.875 -1 0
0.75 -0.875 0
0.875 -0.875 0
0.875 -1 0
1 -1 0
0.875 -0.875 0
1 -0.875 0
0.875 -0.875 0
1 -0.875 0
0.875 -0.75 0
1 -0.75 0
0.25 -1 0
0.375 -1 0
0.25 -0.875 0
0.375 -0.875 0
0.375 -1 0
0.5 -1 0
0.375 -0.875 0
0.5 -0.875 0
0.25 -0.875 0
0.375 -0.875 0
0.25 -0.75 0
0.375 -0.75 0
0.375 -0.875 0
0.5 -0.875 0
0.375 -0.75 0
0.5 -0.75 0
0.25 -0.75 0
0.375 -0.75 0
0.25 -0.625 0
0.375 -0.625 0
0.5 -1 0
0.625 -1 0
0.5 -0.875 0
0.625 -0.875 0
0.625 -1 0
0.75 -1 0
0.625 -0.875 0
0.75 -0.875 0
-0.25 -0.25 0
-0.125 -0.25 0
-0.25 -0.125 0
-0.125 -0.125 0
-0.125 -0.25 0
0 -0.25 0
-0.125 -0.125 0
0 -0.125 0
-0.25 -0.125 0
-0.125 -0.125 0
-0.25 0 0
-0.125 0 0
-0.75 0 0
-0.625 0 0
-0.75 0.125 0
-0.625 0.125 0
-0.625 0 0
-0.5 0 0
-0.625 0.125 0
-0.5 0.125 0
-0.75 0.125 0
-0.625 0.125 0
-0.75 0.25 0
-0.625 0.25 0
-0.625 0.125 0
-0.5 0.125 0
-0.625 0.25 0
-0.5 0.25 0
-1 0.25 0
-0.875 0.25 0
-1 0.375 0
-0.875 0.375 0
-0.875 0.25 0
-0.75 0.25 0
-0.875 0.375 0
-0.75 0.375 0
-1 0.375 0
-0.875 0.375 0
-1 0.5 0
-0.875 0.5 0
-0.875 0.375 0
-0.75 0.375 0
-0.875 0.5 0
-0.75 0.5 0
-0.75 0.25 0
-0.625 0.25 0
-0.75 0.375 0
-0.625 0.375 0
-0.625 0.25 0
-0.5 0.25 0
-0.625 0.375 0
-0.5 0.375 0
-0.75 0.375 0
-0.625 0.375 0
-0.75 0.5 0
-0.625 0.5 0
-0.25 0 0
-0.125 0 0
-0.25 0.125 0
-0.125 0.125 0
-0.25 0.125 0
-0.125 0.125 0
-0.25 0.25 0
-0.125 0.25 0
-0.125 0.125 0
0 0.125 0
-0.125 0.25 0
0 0.25 0
-1 0.75 0
-0.875 0.75 0
-1 0.875 0
-0.875 0.875 0
-0.875 0.75 0
-0.75 0.75 0
-0.875 0.875 0
-0.75 0.875 0
-1 0.875 0
-0.875 0.875 0
-1 1 0
-0.875 1 0
-0.875 0.875 0
-0.75 0.875 0
-0.875 1 0
-0.75 1 0
-0.5 0 0
-0.375 0 0
-0.5 0.125 0
-0.375 0.125 0
-0.375 0 0
-0.25 0 0
-0.375 0.125 0
-0.25 0.125 0
-0.5 0.125 0
-0.375 0.125 0
-0.5 0.25 0
-0.375 0.25 0
-0.375 0.125 0
-0.25 0.125 0
-0.375 0.25 0
-0.25 0.25 0
0 -0.25 0
0.125 -0.25 0
0 -0.125 0
0.125 -0.125 0
0.125 -0.125 0
0.25 -0.125 0
0.125 0 0
0.25 0 0
-0.25 0.25 0
-0.125 0.25 0
-0.25 0.375 0
-0.125 0.375 0
-0.125 0.25 0
0 0.25 0
-0.125 0.375 0
0 0.375 0
-0.125 0.375 0
0 0.375 0
-0.125 0.5 0
0 0.5 0
-0.375 0.25 0
-0.25 0.25 0
-0.375 0.375 0
-0.25 0.375 0
-0.375 0.375 0
-0.25 0.375 0
-0.375 0.5 0
-0.25 0.5 0
-1 0.5 0
-0.875 0.5 0
-1 0.625 0
-0.875 0.625 0
-0.875 0.5 0
-0.75 0.5 0
-0.875 0.625 0
-0.75 0.625 0
-1 0.625 0
-0.875 0.625 0
-1 0.75 0
-0.875 0.75 0
-0.875 0.625 0
-0.75 0.625 0
-0.875 0.75 0
-0.75 0.75 0
-0.75 0.625 0
-0.625 0.625 0
-0.75 0.75 0
-0.625 0.75 0
-0.625 0.625 0
-0.5 0.625 0
-0.625 0.75 0
-0.5 0.75 0
-0.75 0.75 0
-0.625 0.75 0
-0.75 0.875 0
-0.625 0.875 0
-0.75 0.875 0
-0.625 0.875 0
-0.75 1 0
-0.625 1 0
-0.625 0.875 0
-0.5 0.875 0
-0.625 1 0
-0.5 1 0
-0.125 0.5 0
0 0.5 0
-0.125 0.625 0
0 0.625 0
-0.125 0.875 0
0 0.875 0
-0.125 1 0
0 1 0
0.75 -0.875 0
0.8125 -0.875 0
0.75 -0.8125 0
0.8125 -0.8125 0
0.8125 -0.875 0
0.875 -0.875 0
0.8125 -0.8125 0
0.875 -0.8125 0
0.75 -0.8125 0
0.8125 -0.8125 0
0.75 -0.75 0
0.8125 -0.75 0
0.8125 -0.8125 0
0.875 -0.8125 0
0.8125 -0.75 0
0.875 -0.75 0
0.375 -0.75 0
0.4375 -0.75 0
0.375 -0.6875 0
0.4375 -0.6875 0
0.4375 -0.75 0
0.5 -0.75 0
0.4375 -0.6875 0
0.5 -0.6875 0
0.375 -0.6875 0
0.4375 -0.6875 0
0.375 -0.625 0
0.4375 -0.625 0
0.4375 -0.6875 0
0.5 -0.6875 0
0.4375 -0.625 0
0.5 -0.625 0
-0.625 0.375 0
-0.5625 0.375 0
-0.625 0.4375 0
-0.5625 0.4375 0
-0.5625 0.375 0
-0.5 0.375 0
-0.5625 0.4375 0
-0.5 0.4375 0
-0.625 0.4375 0
-0.5625 0.4375 0
-0.625 0.5 0
-0.5625 0.5 0
-0.5625 0.4375 0
-0.5 0.4375 0
-0.5625 0.5 0
-0.5 0.5 0
0.25 -0.625 0
0.3125 -0.625 0
0.25 -0.5625 0
0.3125 -0.5625 0
0.3125 -0.625 0
0.375 -0.625 0
0.3125 -0.5625 0
0.375 -0.5625 0
0.25 -0.5625 0
0.3125 -0.5625 0
0.25 -0.5 0
0.3125 -0.5 0
0.3125 -0.5625 0
0.375 -0.5625 0
0.3125 -0.5 0
0.375 -0.5 0
0.375 -0.625 0
0.4375 -0.625 0
0.375 -0.5625 0
0.4375 -0.5625 0
0.4375 -0.625 0
0.5 -0.625 0
0.4375 -0.5625 0
0.5 -0.5625 0
0.375 -0.5625 0
0.4375 -0.5625 0
0.375 -0.5 0
0.4375 -0.5 0
0.4375 -0.5625 0
0.5 -0.5625 0
0.4375 -0.5 0
0.5 -0.5 0
0.5 -0.875 0
0.5625 -0.875 0
0.5 -0.8125 0
0.5625 -0.8125 0
0.5625 -0.875 0
0.625 -0.875 0
0.5625 -0.8125 0
0.625 -0.8125 0
0.5 -0.8125 0
0.5625 -0.8125 0
0.5 -0.75 0
0.5625 -0.75 0
0.5625 -0.8125 0
0.625 -0.8125 0
0.5625 -0.75 0
0.625 -0.75 0
0.625 -0.875 0
0.6875 -0.875 0
0.625 -0.8125 0
0.6875 -0.8125 0
0.6875 -0.875 0
0.75 -0.875 0
0.6875 -0.8125 0
0.75 -0.8125 0
0.625 -0.8125 0
0.6875 -0.8125 0
0.625 -0.75 0
0.6875 -0.75 0
0.6875 -0.8125 0
0.75 -0.8125 0
0.6875 -0.75 0
0.75 -0.75 0
0.875 -0.75 0
0.9375 -0.75 0
0.875 -0.6875 0
0.9375 -0.6875 0
0.9375 -0.75 0
1 -0.75 0
0.9375 -0.6875 0
1 -0.6875 0
0.875 -0.6875 0
0.9375 -0.6875 0
0.875 -0.625 0
0.9375 -0.625 0
0.9375 -0.6875 0
1 -0.6875 0
0.9375 -0.625 0
1 -0.625 0
0.125 -0.25 0
0.1875 -0.25 0
0.125 -0.1875 0
0.1875 -0.1875 0
0.1875 -0.25 0
0.25 -0.25 0
0.1875 -0.1875 0
0.25 -0.1875 0
0.125 -0.1875 0
0.1875 -0.1875 0
0.125 -0.125 0
0.1875 -0.125 0
0.1875 -0.1875 0
0.25 -0.1875 0
0.1875 -0.125 0
0.25 -0.125 0
0.25 -0.125 0
0.3125 -0.125 0
0.25 -0.0625 0
0.3125 -0.0625 0
0.3125 -0.125 0
0.375 -0.125 0
0.3125 -0.0625 0
0.375 -0.0625 0
0.25 -0.0625 0
0.3125 -0.0625 0
0.25 0 0
0.3125 0 0
0.3125 -0.0625 0
0.375 -0.0625 0
0.3125 0 0
0.375 0 0
-0.125 0 0
-0.0625 0 0
-0.125 0.0625 0
-0.0625 0.0625 0
-0.0625 0 0
0 0 0
-0.0625 0.0625 0
0 0.0625 0
-0.125 0.0625 0
-0.0625 0.0625 0
-0.125 0.125 0
-0.0625 0.125 0
-0.0625 0.0625 0
0 0.0625 0
-0.0625 0.125 0
0 0.125 0
-0.25 0.375 0
-0.1875 0.375 0
-0.25 0.4375 0
-0.1875 0.4375 0
-0.1875 0.375 0
-0.125 0.375 0
-0.1875 0.4375 0
-0.125 0.4375 0
-0.25 0.4375 0
-0.1875 0.4375 0
-0.25 0.5 0
-0.1875 0.5 0
-0.1875 0.4375 0
-0.125 0.4375 0
-0.1875 0.5 0
-0.125 0.5 0
-0.5 0.25 0
-0.4375 0.25 0
-0.5 0.3125 0
-0.4375 0.3125 0
-0.4375 0.25 0
-0.375 0.25 0
-0.4375 0.3125 0
-0.375 0.3125 0
-0.5 0.3125 0
-0.4375 0.3125 0
-0.5 0.375 0
-0.4375 0.375 0
-0.4375 0.3125 0
-0.375 0.3125 0
-0.4375 0.375 0
-0.375 0.375 0
-0.5 0.375 0
-0.4375 0.375 0
-0.5 0.4375 0
-0.4375 0.4375 0
-0.4375 0.375 0
-0.375 0.375 0
-0.4375 0.4375 0
-0.375 0.4375 0
-0.5 0.4375 0
-0.4375 0.4375 0
-0.5 0.5 0
-0.4375 0.5 0
-0.4375 0.4375 0
-0.375 0.4375 0
-0.4375 0.5 0
-0.375 0.5 0
-0.75 0.5 0
-0.6875 0.5 0
-0.75 0.5625 0
-0.6875 0.5625 0
-0.6875 0.5 0
-0.625 0.5 0
-0.6875 0.5625 0
-0.625 0.5625 0
-0.75 0.5625 0
-0.6875 0.5625 0
-0.75 0.625 0
-0.6875 0.625 0
-0.6875 0.5625 0
-0.625 0.5625 0
-0.6875 0.625 0
-0.625 0.625 0
-0.625 0.5 0
-0.5625 0.5 0
-0.625 0.5625 0
-0.5625 0.5625 0
-0.5625 0.5 0
-0.5 0.5 0
-0.5625 0.5625 0
-0.5 0.5625 0
-0.625 0.5625 0
-0.5625 0.5625 0
-0.625 0.625 0
-0.5625 0.625 0
-0.5625 0.5625 0
-0.5 0.5625 0
-0.5625 0.625 0
-0.5 0.625 0
-0.625 0.75 0
-0.5625 0.75 0
-0.625 0.8125 0
-0.5625 0.8125 0
-0.5625 0.75 0
-0.5 0.75 0
-0.5625 0.8125 0
-0.5 0.8125 0
-0.625 0.8125 0
-0.5625 0.8125 0
-0.625 0.875 0
-0.5625 0.875 0
-0.5625 0.8125 0
-0.5 0.8125 0
-0.5625 0.875 0
-0.5 0.875 0
-0.5 0.5 0
-0.4375 0.5 0
-0.5 0.5625 0
-0.4375 0.5625 0
-0.4375 0.5 0
-0.375 0.5 0
-0.4375 0.5625 0
-0.375 0.5625 0
-0.5 0.5625 0
-0.4375 0.5625 0
-0.5 0.625 0
-0.4375 0.625 0
-0.4375 0.5625 0
-0.375 0.5625 0
-0.4375 0.625 0
-0.375 0.625 0
-0.375 0.5 0
-0.3125 0.5 0
-0.375 0.5625 0
-0.3125 0.5625 0
-0.3125 0.5 0
-0.25 0.5 0
-0.3125 0.5625 0
-0.25 0.5625 0
-0.375 0.5625 0
-0.3125 0.5625 0
-0.375 0.625 0
-0.3125 0.625 0
-0.3125 0.5625 0
-0.25 0.5625 0
-0.3125 0.625 0
-0.25 0.625 0
-0.5 0.625 0
-0.4375 0.625 0
-0.5 0.6875 0
-0.4375 0.6875 0
-0.4375 0.625 0
-0.375 0.625 0
-0.4375 0.6875 0
-0.375 0.6875 0
-0.5 0.6875 0
-0.4375 0.6875 0
-0.5 0.75 0
-0.4375 0.75 0
-0.4375 0.6875 0
-0.375 0.6875 0
-0.4375 0.75 0
-0.375 0.75 0
-0.375 0.625 0
-0.3125 0.625 0
-0.375 0.6875 0
-0.3125 0.6875 0
-0.3125 0.625 0
-0.25 0.625 0
-0.3125 0.6875 0
-0.25 0.6875 0
-0.375 0.6875 0
-0.3125 0.6875 0
-0.375 0.75 0
-0.3125 0.75 0
-0.3125 0.6875 0
-0.25 0.6875 0
-0.3125 0.75 0
-0.25 0.75 0
-0.25 0.5 0
-0.1875 0.5 0
-0.25 0.5625 0
-0.1875 0.5625 0
-0.1875 0.5 0
-0.125 0.5 0
-0.1875 0.5625 0
-0.125 0.5625 0
-0.25 0.5625 0
-0.1875 0.5625 0
-0.25 0.625 0
-0.1875 0.625 0
-0.1875 0.5625 0
-0.125 0.5625 0
-0.1875 0.625 0
-0.125 0.625 0
0.125 -0.375 0
0.1875 -0.375 0
0.125 -0.3125 0
0.1875 -0.3125 0
0.1875 -0.375 0
0.25 -0.375 0
0.1875 -0.3125 0
0.25 -0.3125 0
0.125 -0.3125 0
0.1875 -0.3125 0
0.125 -0.25 0
0.1875 -0.25 0
0.1875 -0.3125 0
0.25 -0.3125 0
0.1875 -0.25 0
[...]
POINT_DATA 3588
SCALARS U double 1
LOOKUP_TABLE default
0 0 0 5.55184e-05 0 0 5.55184e-05 0.000118468 0 5.55184e-05 0 0.000140967 5.55184e-05 0.000118468 0.000140967 0.00026427 0 0 0.000118468 0.000189252 0 0 0.000189252 0.000255313 0.000118468 0.000189252 0.00026427 0.00035158 0.000189252 0.000255313 0.00035158 0.00042294 0 0.000140967 0 0.000326214 0.000140967 0.00026427 0.000326214 0.00054784 0 0.000326214 0 0.000703162 0.00026427 0.00035158 0.00054784 0.000550252 0.00035158 0.00042294 0.000550252 0.000419412 0 0 0.000255313 0.000380814 0 0.000703162 0 0.00123798 0.000326214 0.000437027 0.000514688 0.000672797 0.000437027 0.00054784 0.000672797 0.000773866 0.000514688 0.000672797 0.000703162 0.000965563 0.000672797 0.000773866 0.000965563 0.00109942 0.00054784 0.000549046 0.000773866 0.000785513 0.000549046 0.000550252 0.000785513 0.000689294 0.000773866 0.000785513 0.00109942 0.00108237 0.000785513 0.000689294 0.00108237 0.000895646 0.000255313 0.000318064 0.000339127 0.000425139 0.000318064 0.000380814 0.000425139 0.000658912 0.000339127 0.000425139 0.00042294 0.00051817 0.000425139 0.000658912 0.00051817 0.00101264 0.00042294 0.00051817 0.000421176 0.000572859 0.00051817 0.00101264 0.000572859 0.00121887 0.000421176 0.000572859 0.000419412 0.000553344 0 0 0.000282259 0.000133093 0 0 0.000133093 0 0.000133093 0 0.000663803 0 0 0 0.000190407 0.0002094 0 0 0.0002094 0.000244831 0.000190407 0.0002094 0.000380814 0.000565179 0.0002094 0.000244831 0.000565179 0.000843578 0.000380814 0.000565179 0.000658912 0.00128187 0 0 0.000244831 0.000309031 0 0 0.000309031 0.000282259 0.000550252 0.000484832 0.000689294 0.000511385 0.000484832 0.000419412 0.000511385 0.000326366 0.000689294 0.000511385 0.000895646 0.000548686 0.000703162 0.000965563 0.00097057 0.00131553 0.000965563 0.00109942 0.00131553 0.00148796 0.00097057 0.00131553 0.00123798 0.00166835 0.00131553 0.00148796 0.00166835 0.0018842 0 0.00061899 0 0.000760561 0.00061899 0.00123798 0.000760561 0.00143715 0 0.000760561 0 0.000807402 0.000760561 0.00143715 0.000807402 0.00152669 0.00123798 0.00166835 0.00143715 0.00195083 0.00166835 0.0018842 0.00195083 0.00219483 0.00143715 0.00195083 0.00152669 0.00206121 0.000895646 0.000548686 0.00115658 0.000651756 0.00115658 0.000651756 0.00143353 0.000794648 0.000651756 0 0.000794648 0 0 0.000587659 0 0.000323429 0.000587659 0.00110704 0.000323429 0.000609049 0 0.000323429 0 0 0.000323429 0.000609049 0 0 0.00109942 0.00108237 0.00148796 0.00144164 0.00108237 0.000895646 0.00144164 0.00115658 0.00148796 0.00144164 0.0018842 0.00181247 0.00144164 0.00115658 0.00181247 0.00143353 0.000419412 0.000553344 0.000326366 0.000302495 0.000302495 0.000759256 0 0 0.00143353 0.000794648 0.00166804 0.000923901 0.000794648 0 0.000923901 0 0.000923901 0 0.000977098 0 0.00181247 0.00143353 0.00210759 0.00166804 0.00210759 0.00166804 0.00223777 0.00176761 0 0.000807402 0 0.000752768 0.000807402 0.00152669 0.000752768 0.00142302 0 0.000752768 0 0.000587659 0.000752768 0.00142302 0.000587659 0.00110704 0.00142302 0.00192568 0.00110704 0.00149956 0.00192568 0.00217447 0.00149956 0.00169535 0.00110704 0.00149956 0.000609049 0.000825817 0.000609049 0.000825817 0 0 0.000825817 0.000931644 0 0 0.000977098 0 0.000913953 0 0.000392487 0 0 0 0.000282259 0.000207676 0.000521089 0.000441982 0.000207676 0.000133093 0.000441982 0.000398448 0.000521089 0.000441982 0.00106974 0.000928616 0.000441982 0.000398448 0.000928616 0.000663803 0.000565179 0.000704379 0.000923525 0.00111773 0.000704379 0.000843578 0.00111773 0.00139073 0.000923525 0.00111773 0.00128187 0.00185827 0.00111773 0.00139073 0.00185827 0.00247456 0.00195083 0.00207283 0.00200602 0.00218579 0.00207283 0.00219483 0.00218579 0.00227837 0.00200602 0.00218579 0.00206121 0.00222301 0.00218579 0.00227837 0.00222301 0.00231771 0.000658912 0.000970391 0.000835777 0.00119763 0.000970391 0.00128187 0.00119763 0.00189666 0.000835777 0.00119763 0.00101264 0.00149463 0.00119763 0.00189666 0.00149463 0.00254046 0.00128187 0.00185827 0.00189666 0.00273713 0.00185827 0.00247456 0.00273713 0.00379369 0.00189666 0.00273713 0.00254046 0.00382177 0.00273713 0.00379369 0.00382177 0.00610697 0.000244831 0.000276931 0.000544205 0.000527218 0.000276931 0.000309031 0.000527218 0.000561194 0.000544205 0.000527218 0.000843578 0.000993255 0.000527218 0.000561194 0.000993255 0.00106711 0.000309031 0.000295645 0.000561194 0.000575127 0.000295645 0.000282259 0.000575127 0.000521089 0.000561194 0.000575127 0.00106711 0.00114791 0.000575127 0.000521089 0.00114791 0.00106974 0.000663803 0.000331901 0.00118627 0.000655998 0.000331901 0 0.000655998 0 0.00118627 0.000655998 0.00235484 0.0013489 0.000655998 0 0.0013489 0 0.000553344 0.0007166 0.000427919 0.000616247 0.0007166 0.00123702 0.000616247 0.00106536 0.000427919 0.000616247 0.000302495 0.000530875 0.000616247 0.00106536 0.000530875 0.000759256 0.000759256 0.00125986 0.000379628 0.000695381 0.00125986 0.00241445 0.000695381 0.00137787 0.000379628 0.000695381 0 0 0.000695381 0.00137787 0 0 0.000548686 0.000328612 0.000600221 0.000309791 0.000328612 0 0.000309791 0 0.000600221 0.000309791 0.000651756 0.000325878 0.000309791 0 0.000325878 0 0.00166804 0.00129597 0.00171783 0.0013725 0.00129597 0.000923901 0.0013725 0.0009505 0.00171783 0.0013725 0.00176761 0.00139442 0.0013725 0.0009505 0.00139442 0.000977098 0.0018842 0.00184834 0.00203952 0.00204328 0.00184834 0.00181247 0.00204328 0.00196003 0.00203952 0.00204328 0.00219483 0.00218562 0.00204328 0.00196003 0.00218562 0.00210759 0.00219483 0.00218562 0.00227837 0.00228379 0.00218562 0.00210759 0.00228379 0.00217268 0.00227837 0.00228379 0.00231771 0.00231666 0.00228379 0.00217268 0.00231666 0.00223777 0.00152669 0.00179395 0.00147486 0.0017778 0.00179395 0.00206121 0.0017778 0.0020111 0.00147486 0.0017778 0.00142302 0.00167435 0.0017778 0.0020111 0.00167435 0.00192568 0.00206121 0.00222301 0.0020111 0.00218854 0.00222301 0.00231771 0.00218854 0.00227632 0.0020111 0.00218854 0.00192568 0.00205008 0.00218854 0.00227632 0.00205008 0.00217447 0.00149956 0.00159746 0.00116269 0.00127593 0.00159746 0.00169535 0.00127593 0.00133235 0.00116269 0.00127593 0.000825817 0.00087873 0.00127593 0.00133235 0.00087873 0.000931644 0.00231771 0.00231666 0.00227632 0.0022851 0.00231666 0.00223777 0.0022851 0.00218518 0.00227632 0.0022851 0.00217447 0.0021605 0.0022851 0.00218518 0.0021605 0.00208021 0.00223777 0.00200269 0.00218518 0.00200234 0.00200269 0.00176761 0.00200234 0.00172657 0.00218518 0.00200234 0.00208021 0.00190475 0.00200234 0.00172657 0.00190475 0.00164428 0.00217447 0.0021605 0.00193491 0.00196455 0.0021605 0.00208021 0.00196455 0.00189014 0.00193491 0.00196455 0.00169535 0.00168454 0.00196455 0.00189014 0.00168454 0.00162235 0.00208021 0.00190475 0.00189014 0.00173077 0.00190475 0.00164428 0.00173077 0.00149352 0.00189014 0.00173077 0.00162235 0.00148609 0.00173077 0.00149352 0.00148609 0.00128251 0.00176761 0.00139442 0.00172657 0.00137722 0.00139442 0.000977098 0.00137722 0.000945526 0.00172657 0.00137722 0.00164428 0.00130576 0.00137722 0.000945526 0.00130576 0.000913953 0.000572859 0.000895864 0.000563101 0.00082816 0.000895864 0.00121887 0.00082816 0.0013142 0.000563101 0.00082816 0.000553344 0.0007166 0.00082816 0.0013142 0.0007166 0.00123702 0.00164428 0.00130576 0.00149352 0.0011887 0.00130576 0.000913953 0.0011887 0.000824735 0.00149352 0.0011887 0.00128251 0.00102003 0.0011887 0.000824735 0.00102003 0.000709546 0.000511385 0.000418876 0.000530036 0.00036193 0.000418876 0.000326366 0.00036193 0.000243043 0.000530036 0.00036193 0.000548686 0.000328612 0.00036193 0.000243043 0.000328612 0 0.000913953 0.000456976 0.000824735 0.000421796 0.000456976 0 0.000421796 0 0.000824735 0.000421796 0.000709546 0.000363473 0.000421796 0 0.000363473 0 0.00169535 0.00168454 0.00133235 0.00134071 0.00168454 0.00162235 0.00134071 0.00128609 0.00133235 0.00134071 0.000931644 0.000927239 0.00134071 0.00128609 0.000927239 0.000892647 0.00162235 0.00148609 0.00128609 0.00117747 0.00148609 0.00128251 0.00117747 0.00101643 0.00128609 0.00117747 0.000892647 0.000816741 0.00117747 0.00101643 0.000816741 0.000705271 0.000931644 0.000927239 0.000465822 0.000474099 0.000927239 0.000892647 0.000474099 0.000456438 0.000465822 0.000474099 0 0 0.000474099 0.000456438 0 0 0.000892647 0.000816741 0.000456438 0.000417764 0.000816741 0.000705271 0.000417764 0.000360815 0.000456438 0.000417764 0 0 0.000417764 0.000360815 0 0 0.00128251 0.00102003 0.00101643 0.000808951 0.00102003 0.000709546 0.000808951 0.000562139 0.00101643 0.000808951 0.000705271 0.000560807 0.000808951 0.000562139 0.000560807 0.000392487 0.000709546 0.000363473 0.000562139 0.000288007 0.000363473 0 0.000288007 0 0.000562139 0.000288007 0.000392487 0.000196243 0.000288007 0 0.000196243 0 0.000705271 0.000560807 0.000360815 0.000286965 0.000560807 0.000392487 0.000286965 0.000196243 0.000360815 0.000286965 0 0 0.000286965 0.000196243 0 0 0.000843578 0.000993255 0.00139073 0.00174005 0.000993255 0.00106711 0.00174005 0.00192508 0.00295598 0.00338826 0.00503529 0.00578294 0.00338826 0.00358595 0.00578294 0.00614759 0.00358595 0.00349618 0.00614759 0.0060643 0.000928616 0.000663803 0.0017212 0.00118627 0.00349618 0.00308798 0.0060643 0.0053691 0.00308798 0.00235484 0.0053691 0.00410149 0.0053691 0.00410149 0.00903538 0.00732322 0.000326366 0.00031443 0.000243043 0.000162716 0.00031443 0.000302495 0.000162716 0.000151247 0.000243043 0.000162716 0 0 0.000162716 0.000151247 0 0 0.00101264 0.00149463 0.00111575 0.00186809 0.00111575 0.00186809 0.00121887 0.00206254 0.00304411 0.00508751 0.0034902 0.00584534 0.0034902 0.00584534 0.00367973 0.00623175 0.00367973 0.00623175 0.00359289 0.00603555 0.00106536 0.00182593 0.000759256 0.00125986 0.00359289 0.00603555 0.00316522 0.00541355 0.00603555 0.00996648 0.00541355 0.00911368 0.00316522 0.00541355 0.00241445 0.00415639 0.00541355 0.00911368 0.00415639 0.00735824 0.00952693 0.010064 0.0131374 0.0139062 0.010064 0.00997707 0.0139062 0.0138265 0.0139062 0.0138265 0.0160918 0.0160262 0.00956107 0.013153 0.0101174 0.0139241 0.0101174 0.0139241 0.00996648 0.0138479 0.0139241 0.0161017 0.0138479 0.0160427 0.0168203 0.0164515 0.0164536 0.0160814 0.0164515 0.0154904 0.0160814 0.0151476 0.0164536 0.0160814 0.0154933 0.0151485 0.0160814 0.0151476 0.0151485 0.0142782 0.0154904 0.0144794 0.0151476 0.0141529 0.0144794 0.0126462 0.0141529 0.0123693 0.0151476 0.0141529 0.0142782 0.0133593 0.0141529 0.0123693 0.0133593 0.0116853 0.0154933 0.0151485 0.014483 0.0141548 0.0151485 0.0142782 0.0141548 0.0133602 0.014483 0.0141548 0.0126495 0.0123711 0.0141548 0.0133602 0.0123711 0.0116863 0.0142782 0.0133593 0.0133602 0.0125204 0.0133593 0.0116853 0.0125204 0.0109848 0.0133602 0.0125204 0.0116863 0.0109851 0.0125204 0.0109848 0.0109851 0.00967438 0.0126462 0.0107166 0.0123693 0.0104885 0.0107166 0.00763869 0.0104885 0.00748743 0.0123693 0.0104885 0.0116853 0.00994687 0.0104885 0.00748743 0.00994687 0.00712391 0.00763869 0.00454373 0.00748743 0.00444384 0.00454373 0 0.00444384 0 0.00748743 0.00444384 0.00712391 0.00425054 0.00444384 0 0.00425054 0 0.0116853 0.00994687 0.0109848 0.00936922 0.00994687 0.00712391 0.00936922 0.00672601 0.0109848 0.00936922 0.00967438 0.00830063 0.00936922 0.00672601 0.00830063 0.00598283 0.00712391 0.00425054 0.00672601 0.0040389 0.00425054 0 0.0040389 0 0.00672601 0.0040389 0.00598283 0.00364929 0.0040389 0 0.00364929 0 0.0126495 0.0123711 0.0107196 0.0104903 0.0123711 0.0116863 0.0104903 0.00994803 0.0107196 0.0104903 0.00764073 0.00748871 0.0104903 0.00994803 0.00748871 0.00712474 0.0116863 0.0109851 0.00994803 0.00936974 0.0109851 0.00967438 0.00936974 0.00830088 0.00994803 0.00936974 0.00712474 0.00672641 0.00936974 0.00830088 0.00672641 0.00598304 0.00764073 0.00748871 0.00454482 0.00444455 0.00748871 0.00712474 0.00444455 0.00425102 0.00454482 0.00444455 0 0 0.00444455 0.00425102 0 0 0.00712474 0.00672641 0.00425102 0.00403916 0.00672641 0.00598304 0.00403916 0.00364944 0.00425102 0.00403916 0 0 0.00403916 0.00364944 0 0 0.00410149 0.00347584 0.00571236 0.00454546 0.00347584 0.0023827 0.00454546 0.00310505 0.00571236 0.00454546 0.00732322 0.00603065 0.00454546 0.00310505 0.00603065 0.0044251 0.00967438 0.00830063 0.00830088 0.00716394 0.00830063 0.00598283 0.00716394 0.00521002 0.00830088 0.00716394 0.00598304 0.00521005 0.00716394 0.00521002 0.00521005 0.00381483 0.00598283 0.00364929 0.00521002 0.00323192 0.00364929 0 0.00323192 0 0.00521002 0.00323192 0.00381483 0.00247697 0.00323192 0 0.00247697 0 0.00598304 0.00521005 0.00364944 0.00323197 0.00521005 0.00381483 0.00323197 0.002477 0.00364944 0.00323197 0 0 0.00323197 0.002477 0 0 0.00381483 0.00247697 0.002477 0.00169223 0.00247697 0 0.00169223 0 0.002477 0.00169223 0 0 0.00169223 0 0 0 0.00139073 0.00156539 0.00193265 0.00205128 0.00156539 0.00174005 0.00205128 0.00221718 0.00193265 0.00205128 0.00247456 0.00280345 0.00205128 0.00221718 0.00280345 0.00295598 0.00174005 0.00183256 0.00221718 0.00238527 0.00183256 0.00192508 0.00238527 0.002492 0.00221718 0.00238527 0.00295598 0.00317212 0.00238527 0.002492 0.00317212 0.00338826 0.00106711 0.00110751 0.0014961 0.00146112 0.00110751 0.00114791 0.00146112 0.00146414 0.0014961 0.00146112 0.00192508 0.00202793 0.00146112 0.00146414 0.00202793 0.00203255 0.00114791 0.00110882 0.00146414 0.00145842 0.00110882 0.00106974 0.00145842 0.00139279 0.00146414 0.00145842 0.00203255 0.00203431 0.00145842 0.00139279 0.00203431 0.00196848 0.00192508 0.00202793 0.002492 0.00260536 0.00202793 0.00203255 0.00260536 0.00262158 0.002492 0.00260536 0.00338826 0.0034871 0.00260536 0.00262158 0.0034871 0.00358595 0.00203255 0.00203431 0.00262158 0.0026363 0.00203431 0.00196848 0.0026363 0.00254493 0.00262158 0.0026363 0.00358595 0.00354106 0.0026363 0.00254493 0.00354106 0.00349618 0.00247456 0.00280345 0.00313412 0.00346767 0.00280345 0.00295598 0.00346767 0.00399563 0.00313412 0.00346767 0.00379369 0.00452481 0.00346767 0.00399563 0.00452481 0.00503529 0.00379369 0.00452481 0.00495033 0.00562049 0.00452481 0.00503529 0.00562049 0.0062555 0.00495033 0.00562049 0.00610697 0.0073088 0.00562049 0.0062555 0.0073088 0.00808754 0.00503529 0.00540911 0.0062555 0.00689102 0.00540911 0.00578294 0.00689102 0.00725088 0.0062555 0.00689102 0.00808754 0.00892866 0.00689102 0.00725088 0.00892866 0.00952693 0.00578294 0.00596527 0.00725088 0.00762368 0.00596527 0.00614759 0.00762368 0.00769864 0.00725088 0.00762368 0.00952693 0.00979545 0.00762368 0.00769864 0.00979545 0.010064 0.00415639 0.00575732 0.00350951 0.0045733 0.00575732 0.00735824 0.0045733 0.0060537 0.00350951 0.0045733 0.00240303 0.0031215 0.0045733 0.0060537 0.0031215 0.00443919 0.00808754 0.00892866 0.00996715 0.0107096 0.00892866 0.00952693 0.0107096 0.0113322 0.0107096 0.0113322 0.0122651 0.0131374 0.00614759 0.00610595 0.00769864 0.0078021 0.00610595 0.0060643 0.0078021 0.00759325 0.00769864 0.0078021 0.010064 0.0100205 0.0078021 0.00759325 0.0100205 0.00997707 0.00106974 0.000999175 0.00139279 0.00134116 0.000999175 0.000928616 0.00134116 0.00132491 0.00139279 0.00134116 0.00196848 0.00189063 0.00134116 0.00132491 0.00189063 0.0017212 0.00196848 0.00189063 0.00254493 0.00244892 0.00189063 0.0017212 0.00244892 0.00222823 0.00254493 0.00244892 0.00349618 0.00329208 0.00244892 0.00222823 0.00329208 0.00308798 0.0017212 0.00145374 0.00222823 0.00201574 0.00145374 0.00118627 0.00201574 0.00177056 0.00222823 0.00201574 0.00308798 0.00272141 0.00201574 0.00177056 0.00272141 0.00235484 0.0060643 0.0057167 0.00759325 0.00741473 0.0057167 0.0053691 0.00741473 0.00720224 0.00759325 0.00741473 0.00997707 0.0096634 0.00741473 0.00720224 0.0096634 0.00903538 0.00810929 0.00997631 0.00895924 0.0107277 0.00895924 0.0107277 0.00956107 0.011357 0.0107277 0.0122729 0.011357 0.013153 0.00235484 0.00185187 0.00322817 0.00246626 0.00185187 0.0013489 0.00246626 0.00169123 0.00322817 0.00246626 0.00410149 0.00347584 0.00246626 0.00169123 0.00347584 0.0023827 0.0013489 0.00067445 0.00169123 0.00088089 0.00067445 0 0.00088089 0 0.00169123 0.00088089 0.0023827 0.00125574 0.00088089 0 0.00125574 0 0.0122651 0.0131374 0.0133872 0.0142457 0.0122729 0.0133872 0.013153 0.0142523 0.0023827 0.00125574 0.00310505 0.00167509 0.00125574 0 0.00167509 0 0.00310505 0.00167509 0.0044251 0.00259209 0.00167509 0 0.00259209 0 0.00149463 0.00201754 0.00168136 0.00214939 0.00201754 0.00254046 0.00214939 0.00288298 0.00168136 0.00214939 0.00186809 0.00232383 0.00214939 0.00288298 0.00232383 0.00304411 0.0131374 0.0135218 0.0142457 0.0147409 0.0135218 0.0139062 0.0147409 0.014999 0.0142457 0.0147409 0.0151138 0.0157724 0.0147409 0.014999 0.0157724 0.0160918 0.00186809 0.00232383 0.00196532 0.0025007 0.00232383 0.00304411 0.0025007 0.00326716 0.00196532 0.0025007 0.00206254 0.00260937 0.0025007 0.00326716 0.00260937 0.0034902 0.00254046 0.00318111 0.00288298 0.00352763 0.00318111 0.00382177 0.00352763 0.00456777 0.00288298 0.00352763 0.00304411 0.00406581 0.00352763 0.00456777 0.00406581 0.00508751 0.013153 0.0142523 0.0135385 0.0147518 0.0142523 0.0151138 0.0147518 0.0157779 0.0135385 0.0147518 0.0139241 0.0150129 0.0147518 0.0157779 0.0150129 0.0161017 0.00382177 0.00496437 0.00456777 0.00564683 0.00496437 0.00610697 0.00564683 0.00732209 0.00456777 0.00564683 0.00508751 0.00629039 0.00564683 0.00732209 0.00629039 0.00810929 0.00508751 0.00629039 0.00546643 0.00693394 0.00629039 0.00810929 0.00693394 0.00895924 0.00546643 0.00693394 0.00584534 0.00729917 0.00693394 0.00895924 0.00729917 0.00956107 0.00121887 0.00164071 0.00126653 0.00161922 0.00164071 0.00206254 0.00161922 0.00216997 0.00126653 0.00161922 0.0013142 0.0016166 0.00161922 0.00216997 0.0016166 0.00217529 0.00206254 0.00260937 0.00216997 0.00272615 0.00260937 0.0034902 0.00272615 0.00358496 0.00216997 0.00272615 0.00217529 0.00274064 0.00272615 0.00358496 0.00274064 0.00367973 0.00997707 0.0096634 0.0119018 0.0115837 0.0096634 0.00903538 0.0115837 0.0110031 0.0119018 0.0115837 0.0138265 0.0132651 0.00903538 0.0081793 0.0110031 0.0101253 0.0081793 0.00732322 0.0101253 0.00900913 0.0013142 0.0016166 0.00127561 0.00161282 0.0016166 0.00217529 0.00161282 0.0021715 0.00127561 0.00161282 0.00123702 0.00153904 0.00161282 0.0021715 0.00153904 0.00209448 0.00217529 0.00274064 0.0021715 0.00275275 0.00274064 0.00367973 0.00275275 0.00363631 0.0021715 0.00275275 0.00209448 0.00265439 0.00275275 0.00363631 0.00265439 0.00359289 0.0138265 0.0132651 0.0149263 0.0145256 0.0132651 0.0126706 0.0145256 0.0138519 0.0149263 0.0145256 0.0160262 0.0155149 0.0145256 0.0138519 0.0155149 0.0147935 0.0126706 0.0116692 0.0138519 0.0127449 0.00259209 0 0.00309251 0 0.00584534 0.00729917 0.00603855 0.00767815 0.00729917 0.00956107 0.00767815 0.00983922 0.00603855 0.00767815 0.00623175 0.00774344 0.00767815 0.00983922 0.00774344 0.0101174 0.00623175 0.00774344 0.00613365 0.00786003 0.00774344 0.0101174 0.00786003 0.0100419 0.00613365 0.00786003 0.00603555 0.00800102 0.00786003 0.0100419 0.00800102 0.00996648 0.0160262 0.0155149 0.0166753 0.0161279 0.0155149 0.0147935 0.0161279 0.0153645 0.0166753 0.0161279 0.0169172 0.016523 0.0161279 0.0153645 0.016523 0.0157369 0.00123702 0.00153904 0.00115119 0.00147358 0.00153904 0.00209448 0.00147358 0.00200755 0.00115119 0.00147358 0.00106536 0.00144564 0.00147358 0.00200755 0.00144564 0.00182593 0.00209448 0.00265439 0.00200755 0.00255178 0.00265439 0.00359289 0.00255178 0.00337905 0.00200755 0.00255178 0.00182593 0.00231894 0.00255178 0.00337905 0.00231894 0.00316522 0.00182593 0.00231894 0.00154289 0.00209561 0.00231894 0.00316522 0.00209561 0.00278984 0.00154289 0.00209561 0.00125986 0.00183716 0.00209561 0.00278984 0.00183716 0.00241445 0.00241445 0.00328542 0.00189616 0.00250463 0.00328542 0.00415639 0.00250463 0.00350951 0.00189616 0.00250463 0.00137787 0.0017155 0.00250463 0.00350951 0.0017155 0.00240303 0.00137787 0.0017155 0.000688934 0.00089297 0.0017155 0.00240303 0.00089297 0.00126592 0.000688934 0.00089297 0 0 0.00089297 0.00126592 0 0 0.00240303 0.00312