# vtk DataFile Version 3.0
#This file was generated by the deal.II library on 2021/4/23 at 0:45:38
ASCII
DATASET UNSTRUCTURED_GRID

FIELD FieldData 2
CYCLE 1 1 int
21
TIME 1 1 double
0.042
POINTS 2976 double
-1 -1 0
-0.75 -1 0
-1 -0.75 0
-0.75 -0.75 0
-0.75 -1 0
-0.5 -1 0
-0.75 -0.75 0
-0.5 -0.75 0
-1 -0.75 0
-0.75 -0.75 0
-1 -0.5 0
-0.75 -0.5 0
-0.75 -0.75 0
-0.5 -0.75 0
-0.75 -0.5 0
-0.5 -0.5 0
-0.5 -1 0
-0.25 -1 0
-0.5 -0.75 0
-0.25 -0.75 0
-0.25 -1 0
0 -1 0
-0.25 -0.75 0
0 -0.75 0
-0.5 -0.75 0
-0.25 -0.75 0
-0.5 -0.5 0
-0.25 -0.5 0
-0.25 -0.75 0
0 -0.75 0
-0.25 -0.5 0
0 -0.5 0
-1 -0.5 0
-0.75 -0.5 0
-1 -0.25 0
-0.75 -0.25 0
-0.75 -0.5 0
-0.5 -0.5 0
-0.75 -0.25 0
-0.5 -0.25 0
-1 -0.25 0
-0.75 -0.25 0
-1 0 0
-0.75 0 0
-0.75 -0.25 0
-0.5 -0.25 0
-0.75 0 0
-0.5 0 0
-0.5 -0.5 0
-0.25 -0.5 0
-0.5 -0.25 0
-0.25 -0.25 0
-0.5 -0.25 0
-0.25 -0.25 0
-0.5 0 0
-0.25 0 0
0 -1 0
0.25 -1 0
0 -0.75 0
0.25 -0.75 0
-1 0 0
-0.75 0 0
-1 0.25 0
-0.75 0.25 0
-0.75 0 0
-0.5 0 0
-0.75 0.25 0
-0.5 0.25 0
-1 0.25 0
-0.75 0.25 0
-1 0.5 0
-0.75 0.5 0
-0.75 0.25 0
-0.5 0.25 0
-0.75 0.5 0
-0.5 0.5 0
-0.5 0 0
-0.25 0 0
-0.5 0.25 0
-0.25 0.25 0
-0.25 0 0
0 0 0
-0.25 0.25 0
0 0.25 0
-0.5 0.25 0
-0.25 0.25 0
-0.5 0.5 0
-0.25 0.5 0
-0.25 0.25 0
0 0.25 0
-0.25 0.5 0
0 0.5 0
-1 0.5 0
-0.75 0.5 0
-1 0.75 0
-0.75 0.75 0
-0.75 0.5 0
-0.5 0.5 0
-0.75 0.75 0
-0.5 0.75 0
-1 0.75 0
-0.75 0.75 0
-1 1 0
-0.75 1 0
-0.75 0.75 0
-0.5 0.75 0
-0.75 1 0
-0.5 1 0
-0.5 0.5 0
-0.25 0.5 0
-0.5 0.75 0
-0.25 0.75 0
-0.25 0.5 0
0 0.5 0
-0.25 0.75 0
0 0.75 0
-0.5 0.75 0
-0.25 0.75 0
-0.5 1 0
-0.25 1 0
-0.25 0.75 0
0 0.75 0
-0.25 1 0
0 1 0
0.25 -0.75 0
0.375 -0.75 0
0.25 -0.625 0
0.375 -0.625 0
0.5 -1 0
0.625 -1 0
0.5 -0.875 0
0.625 -0.875 0
0.75 -1 0
0.875 -1 0
0.75 -0.875 0
0.875 -0.875 0
0.875 -1 0
1 -1 0
0.875 -0.875 0
1 -0.875 0
0.875 -0.875 0
1 -0.875 0
0.875 -0.75 0
1 -0.75 0
0 -0.125 0
0.125 -0.125 0
0 0 0
0.125 0 0
0.125 -0.125 0
0.25 -0.125 0
0.125 0 0
0.25 0 0
0.25 -1 0
0.375 -1 0
0.25 -0.875 0
0.375 -0.875 0
0.375 -1 0
0.5 -1 0
0.375 -0.875 0
0.5 -0.875 0
0.25 -0.875 0
0.375 -0.875 0
0.25 -0.75 0
0.375 -0.75 0
0 -0.75 0
0.125 -0.75 0
0 -0.625 0
0.125 -0.625 0
0.125 -0.75 0
0.25 -0.75 0
0.125 -0.625 0
0.25 -0.625 0
0 -0.625 0
0.125 -0.625 0
0 -0.5 0
0.125 -0.5 0
-0.25 -0.5 0
-0.125 -0.5 0
-0.25 -0.375 0
-0.125 -0.375 0
-0.125 -0.5 0
0 -0.5 0
-0.125 -0.375 0
0 -0.375 0
-0.25 -0.375 0
-0.125 -0.375 0
-0.25 -0.25 0
-0.125 -0.25 0
-0.125 -0.375 0
0 -0.375 0
-0.125 -0.25 0
0 -0.25 0
-0.25 -0.25 0
-0.125 -0.25 0
-0.25 -0.125 0
-0.125 -0.125 0
-0.125 -0.25 0
0 -0.25 0
-0.125 -0.125 0
0 -0.125 0
-0.25 -0.125 0
-0.125 -0.125 0
-0.25 0 0
-0.125 0 0
-0.125 -0.125 0
0 -0.125 0
-0.125 0 0
0 0 0
0.5625 -0.5 0
0.625 -0.5 0
0.5625 -0.4375 0
0.625 -0.4375 0
0.5 -0.4375 0
0.5625 -0.4375 0
0.5 -0.375 0
0.5625 -0.375 0
0.5625 -0.4375 0
0.625 -0.4375 0
0.5625 -0.375 0
0.625 -0.375 0
0.625 -0.5 0
0.6875 -0.5 0
0.625 -0.4375 0
0.6875 -0.4375 0
0.6875 -0.5 0
0.75 -0.5 0
0.6875 -0.4375 0
0.75 -0.4375 0
0.625 -0.4375 0
0.6875 -0.4375 0
0.625 -0.375 0
0.6875 -0.375 0
0.6875 -0.4375 0
0.75 -0.4375 0
0.6875 -0.375 0
0.75 -0.375 0
0.5 -0.375 0
0.5625 -0.375 0
0.5 -0.3125 0
0.5625 -0.3125 0
0.5625 -0.375 0
0.625 -0.375 0
0.5625 -0.3125 0
0.625 -0.3125 0
0.5 -0.3125 0
0.5625 -0.3125 0
0.5 -0.25 0
0.5625 -0.25 0
0.625 -0.375 0
0.6875 -0.375 0
0.625 -0.3125 0
0.6875 -0.3125 0
0.9375 -0.5 0
1 -0.5 0
0.9375 -0.4375 0
1 -0.4375 0
0.5 -0.0625 0
0.5625 -0.0625 0
0.5 0 0
0.5625 0 0
0.9375 -0.0625 0
1 -0.0625 0
0.9375 0 0
1 0 0
0.625 -0.625 0
0.6875 -0.625 0
0.625 -0.5625 0
0.6875 -0.5625 0
0.75 -0.625 0
0.8125 -0.625 0
0.75 -0.5625 0
0.8125 -0.5625 0
0.8125 -0.625 0
0.875 -0.625 0
0.8125 -0.5625 0
0.875 -0.5625 0
0.8125 -0.5625 0
0.875 -0.5625 0
0.8125 -0.5 0
0.875 -0.5 0
0.375 -0.375 0
0.4375 -0.375 0
0.375 -0.3125 0
0.4375 -0.3125 0
0.375 -0.1875 0
0.4375 -0.1875 0
0.375 -0.125 0
0.4375 -0.125 0
0.4375 -0.1875 0
0.5 -0.1875 0
0.4375 -0.125 0
0.5 -0.125 0
0.5 -0.75 0
0.5625 -0.75 0
0.5 -0.6875 0
0.5625 -0.6875 0
0.875 -0.75 0
0.9375 -0.75 0
0.875 -0.6875 0
0.9375 -0.6875 0
0.9375 -0.75 0
1 -0.75 0
0.9375 -0.6875 0
1 -0.6875 0
0.9375 -0.6875 0
1 -0.6875 0
0.9375 -0.625 0
1 -0.625 0
0.9375 -0.625 0
1 -0.625 0
0.9375 -0.5625 0
1 -0.5625 0
0.25 -0.5 0
0.3125 -0.5 0
0.25 -0.4375 0
0.3125 -0.4375 0
0.25 -0.125 0
0.3125 -0.125 0
0.25 -0.0625 0
0.3125 -0.0625 0
0.25 -0.0625 0
0.3125 -0.0625 0
0.25 0 0
0.3125 0 0
0.3125 -0.0625 0
0.375 -0.0625 0
0.3125 0 0
0.375 0 0
0.375 -0.0625 0
0.4375 -0.0625 0
0.375 0 0
0.4375 0 0
0.375 -0.75 0
0.4375 -0.75 0
0.375 -0.6875 0
0.4375 -0.6875 0
0.4375 -0.75 0
0.5 -0.75 0
0.4375 -0.6875 0
0.5 -0.6875 0
0.375 -0.6875 0
0.4375 -0.6875 0
0.375 -0.625 0
0.4375 -0.625 0
0.4375 -0.6875 0
0.5 -0.6875 0
0.4375 -0.625 0
0.5 -0.625 0
0.25 -0.625 0
0.3125 -0.625 0
0.25 -0.5625 0
0.3125 -0.5625 0
0.3125 -0.625 0
0.375 -0.625 0
0.3125 -0.5625 0
0.375 -0.5625 0
0.25 -0.5625 0
0.3125 -0.5625 0
0.25 -0.5 0
0.3125 -0.5 0
0.3125 -0.5625 0
0.375 -0.5625 0
0.3125 -0.5 0
0.375 -0.5 0
0.375 -0.625 0
0.4375 -0.625 0
0.375 -0.5625 0
0.4375 -0.5625 0
0.4375 -0.625 0
0.5 -0.625 0
0.4375 -0.5625 0
0.5 -0.5625 0
0.375 -0.5625 0
0.4375 -0.5625 0
0.375 -0.5 0
0.4375 -0.5 0
0.4375 -0.5625 0
0.5 -0.5625 0
0.4375 -0.5 0
0.5 -0.5 0
0.625 -1 0
0.6875 -1 0
0.625 -0.9375 0
0.6875 -0.9375 0
0.6875 -1 0
0.75 -1 0
0.6875 -0.9375 0
0.75 -0.9375 0
0.625 -0.9375 0
0.6875 -0.9375 0
0.625 -0.875 0
0.6875 -0.875 0
0.6875 -0.9375 0
0.75 -0.9375 0
0.6875 -0.875 0
0.75 -0.875 0
0.5 -0.875 0
0.5625 -0.875 0
0.5 -0.8125 0
0.5625 -0.8125 0
0.5625 -0.875 0
0.625 -0.875 0
0.5625 -0.8125 0
0.625 -0.8125 0
0.5 -0.8125 0
0.5625 -0.8125 0
0.5 -0.75 0
0.5625 -0.75 0
0.5625 -0.8125 0
0.625 -0.8125 0
0.5625 -0.75 0
0.625 -0.75 0
0.625 -0.875 0
0.6875 -0.875 0
0.625 -0.8125 0
0.6875 -0.8125 0
0.6875 -0.875 0
0.75 -0.875 0
0.6875 -0.8125 0
0.75 -0.8125 0
0.625 -0.8125 0
0.6875 -0.8125 0
0.625 -0.75 0
0.6875 -0.75 0
0.6875 -0.8125 0
0.75 -0.8125 0
0.6875 -0.75 0
0.75 -0.75 0
0.75 -0.875 0
0.8125 -0.875 0
0.75 -0.8125 0
0.8125 -0.8125 0
0.8125 -0.875 0
0.875 -0.875 0
0.8125 -0.8125 0
0.875 -0.8125 0
0.75 -0.8125 0
0.8125 -0.8125 0
0.75 -0.75 0
0.8125 -0.75 0
0.8125 -0.8125 0
0.875 -0.8125 0
0.8125 -0.75 0
0.875 -0.75 0
0 -0.5 0
0.0625 -0.5 0
0 -0.4375 0
0.0625 -0.4375 0
0.0625 -0.5 0
0.125 -0.5 0
0.0625 -0.4375 0
0.125 -0.4375 0
0 -0.4375 0
0.0625 -0.4375 0
0 -0.375 0
0.0625 -0.375 0
0.0625 -0.4375 0
0.125 -0.4375 0
0.0625 -0.375 0
0.125 -0.375 0
0.125 -0.5 0
0.1875 -0.5 0
0.125 -0.4375 0
0.1875 -0.4375 0
0.1875 -0.5 0
0.25 -0.5 0
0.1875 -0.4375 0
0.25 -0.4375 0
0.125 -0.4375 0
0.1875 -0.4375 0
0.125 -0.375 0
0.1875 -0.375 0
0.1875 -0.4375 0
0.25 -0.4375 0
0.1875 -0.375 0
0.25 -0.375 0
0 -0.375 0
0.0625 -0.375 0
0 -0.3125 0
0.0625 -0.3125 0
0.0625 -0.375 0
0.125 -0.375 0
0.0625 -0.3125 0
0.125 -0.3125 0
0 -0.3125 0
0.0625 -0.3125 0
0 -0.25 0
0.0625 -0.25 0
0.0625 -0.3125 0
0.125 -0.3125 0
0.0625 -0.25 0
0.125 -0.25 0
0.125 -0.375 0
0.1875 -0.375 0
0.125 -0.3125 0
0.1875 -0.3125 0
0.1875 -0.375 0
0.25 -0.375 0
0.1875 -0.3125 0
0.25 -0.3125 0
0.125 -0.3125 0
0.1875 -0.3125 0
0.125 -0.25 0
0.1875 -0.25 0
0.1875 -0.3125 0
0.25 -0.3125 0
0.1875 -0.25 0
0.25 -0.25 0
0 -0.25 0
0.0625 -0.25 0
0 -0.1875 0
0.0625 -0.1875 0
0.0625 -0.25 0
0.125 -0.25 0
0.0625 -0.1875 0
0.125 -0.1875 0
0 -0.1875 0
0.0625 -0.1875 0
0 -0.125 0
0.0625 -0.125 0
0.0625 -0.1875 0
0.125 -0.1875 0
0.0625 -0.125 0
0.125 -0.125 0
0.125 -0.25 0
0.1875 -0.25 0
0.125 -0.1875 0
0.1875 -0.1875 0
0.1875 -0.25 0
0.25 -0.25 0
0.1875 -0.1875 0
0.25 -0.1875 0
0.125 -0.1875 0
0.1875 -0.1875 0
0.125 -0.125 0
0.1875 -0.125 0
0.1875 -0.1875 0
0.25 -0.1875 0
0.1875 -0.125 0
0.25 -0.125 0
0.375 -0.875 0
0.4375 -0.875 0
0.375 -0.8125 0
0.4375 -0.8125 0
0.4375 -0.875 0
0.5 -0.875 0
0.4375 -0.8125 0
0.5 -0.8125 0
0.375 -0.8125 0
0.4375 -0.8125 0
0.375 -0.75 0
0.4375 -0.75 0
0.4375 -0.8125 0
0.5 -0.8125 0
0.4375 -0.75 0
0.5 -0.75 0
0.125 -0.625 0
0.1875 -0.625 0
0.125 -0.5625 0
0.1875 -0.5625 0
0.1875 -0.625 0
0.25 -0.625 0
0.1875 -0.5625 0
0.25 -0.5625 0
0.125 -0.5625 0
0.1875 -0.5625 0
0.125 -0.5 0
0.1875 -0.5 0
0.1875 -0.5625 0
0.25 -0.5625 0
0.1875 -0.5 0
0.25 -0.5 0
0.75 -0.5 0
0.78125 -0.5 0
0.75 -0.46875 0
0.78125 -0.46875 0
0.78125 -0.5 0
0.8125 -0.5 0
0.78125 -0.46875 0
0.8125 -0.46875 0
0.75 -0.46875 0
0.78125 -0.46875 0
0.75 -0.4375 0
0.78125 -0.4375 0
0.78125 -0.46875 0
0.8125 -0.46875 0
0.78125 -0.4375 0
0.8125 -0.4375 0
0.8125 -0.5 0
0.84375 -0.5 0
0.8125 -0.46875 0
0.84375 -0.46875 0
0.84375 -0.5 0
0.875 -0.5 0
0.84375 -0.46875 0
0.875 -0.46875 0
0.8125 -0.46875 0
0.84375 -0.46875 0
0.8125 -0.4375 0
0.84375 -0.4375 0
0.84375 -0.46875 0
0.875 -0.46875 0
0.84375 -0.4375 0
0.875 -0.4375 0
0.75 -0.4375 0
0.78125 -0.4375 0
0.75 -0.40625 0
0.78125 -0.40625 0
0.75 -0.40625 0
0.78125 -0.40625 0
0.75 -0.375 0
0.78125 -0.375 0
0.75 -0.375 0
0.78125 -0.375 0
0.75 -0.34375 0
0.78125 -0.34375 0
0.96875 -0.375 0
1 -0.375 0
0.96875 -0.34375 0
1 -0.34375 0
0.96875 -0.34375 0
1 -0.34375 0
0.96875 -0.3125 0
1 -0.3125 0
0.96875 -0.3125 0
1 -0.3125 0
0.96875 -0.28125 0
1 -0.28125 0
0.96875 -0.28125 0
1 -0.28125 0
0.96875 -0.25 0
1 -0.25 0
0.5 -0.25 0
0.53125 -0.25 0
0.5 -0.21875 0
0.53125 -0.21875 0
0.53125 -0.25 0
0.5625 -0.25 0
0.53125 -0.21875 0
0.5625 -0.21875 0
0.5 -0.21875 0
0.53125 -0.21875 0
0.5 -0.1875 0
0.53125 -0.1875 0
0.53125 -0.21875 0
0.5625 -0.21875 0
0.53125 -0.1875 0
0.5625 -0.1875 0
0.5625 -0.25 0
0.59375 -0.25 0
0.5625 -0.21875 0
0.59375 -0.21875 0
0.5 -0.1875 0
0.53125 -0.1875 0
0.5 -0.15625 0
0.53125 -0.15625 0
0.53125 -0.1875 0
0.5625 -0.1875 0
0.53125 -0.15625 0
0.5625 -0.15625 0
0.5 -0.15625 0
0.53125 -0.15625 0
0.5 -0.125 0
0.53125 -0.125 0
0.53125 -0.15625 0
0.5625 -0.15625 0
0.53125 -0.125 0
0.5625 -0.125 0
0.625 -0.25 0
0.65625 -0.25 0
0.625 -0.21875 0
0.65625 -0.21875 0
0.625 -0.03125 0
0.65625 -0.03125 0
0.625 0 0
0.65625 0 0
0.65625 -0.03125 0
0.6875 -0.03125 0
0.65625 0 0
0.6875 0 0
0.6875 -0.03125 0
0.71875 -0.03125 0
0.6875 0 0
0.71875 0 0
0.71875 -0.03125 0
[...]
POINT_DATA 2976
SCALARS U double 1
LOOKUP_TABLE default
0 0 0 5.35376e-07 0 0 5.35376e-07 -5.25312e-07 0 5.35376e-07 0 1.30408e-06 5.35376e-07 -5.25312e-07 1.30408e-06 -1.73564e-06 0 0 -5.25312e-07 -9.78165e-06 0 0 -9.78165e-06 3.64577e-05 -5.25312e-07 -9.78165e-06 -1.73564e-06 -2.23888e-05 -9.78165e-06 3.64577e-05 -2.23888e-05 0.00014723 0 1.30408e-06 0 1.71285e-06 1.30408e-06 -1.73564e-06 1.71285e-06 -4.40395e-06 0 1.71285e-06 0 4.34126e-07 1.71285e-06 -4.40395e-06 4.34126e-07 -1.32131e-06 -1.73564e-06 -2.23888e-05 -4.40395e-06 -8.51095e-06 -4.40395e-06 -8.51095e-06 -1.32131e-06 -1.34046e-07 0 0 3.64577e-05 0.000495872 0 4.34126e-07 0 1.43565e-08 4.34126e-07 -1.32131e-06 1.43565e-08 9.62668e-08 0 1.43565e-08 0 1.27613e-09 1.43565e-08 9.62668e-08 1.27613e-09 1.22794e-08 -1.32131e-06 -1.34046e-07 9.62668e-08 -4.75086e-07 -1.34046e-07 0 -4.75086e-07 0 9.62668e-08 -4.75086e-07 1.22794e-08 9.78188e-08 -4.75086e-07 0 9.78188e-08 0 0 1.27613e-09 0 -1.57578e-09 1.27613e-09 1.22794e-08 -1.57578e-09 -3.32054e-10 0 -1.57578e-09 0 0 -1.57578e-09 -3.32054e-10 0 0 1.22794e-08 9.78188e-08 -3.32054e-10 -2.34957e-09 9.78188e-08 0 -2.34957e-09 0 -3.32054e-10 -2.34957e-09 0 0 -2.34957e-09 0 0 0 0.000495872 0.00108422 0.00107954 0.00239378 0 0 0.000641631 0.00077916 0 0 0.000747089 0.000432201 0 0 0.000432201 0 0.000432201 0 0.00138612 0 0.000107399 0.000425237 0 0 0.000425237 0.00138629 0 0 0 0 0.000247936 0.000392144 0 0 0.000392144 0.000641631 0.000247936 0.000392144 0.000495872 0.00108422 3.64577e-05 0.000266165 9.18438e-05 0.000401779 0.000266165 0.000495872 0.000401779 0.00107954 9.18438e-05 0.000401779 0.00014723 0.000649246 -2.23888e-05 6.24206e-05 -1.54499e-05 3.63558e-05 6.24206e-05 0.00014723 3.63558e-05 0.000222678 -1.54499e-05 3.63558e-05 -8.51095e-06 3.95121e-05 3.63558e-05 0.000222678 3.95121e-05 0.000204507 -8.51095e-06 3.95121e-05 -4.3225e-06 2.32206e-05 3.95121e-05 0.000204507 2.32206e-05 0.000107399 -4.3225e-06 2.32206e-05 -1.34046e-07 -6.70228e-08 2.32206e-05 0.000107399 -6.70228e-08 0 0.0104527 0.0119429 0.0130866 0.0150028 0.0104517 0.0130866 0.011945 0.0150023 0.0130866 0.0150028 0.0150023 0.0172152 0.0119429 0.012561 0.0150028 0.0158088 0.012561 0.0121912 0.0158088 0.0154901 0.0150028 0.0158088 0.0172152 0.0182455 0.0158088 0.0154901 0.0182455 0.0178644 0.011945 0.0150023 0.0125586 0.0158651 0.0150023 0.0172152 0.0158651 0.0182708 0.0125586 0.0158651 0.0121969 0.0155086 0.0172152 0.0182455 0.0182708 0.0193492 0.00445025 0 0.00584751 0 0.00444919 0.00584697 0 0 0.00271239 0 0 0 0.00583428 0.00607897 0.00867714 0.00905533 0.00584082 0.00509799 0.00879658 0.00770364 0.00509799 0.00378716 0.00770364 0.00582176 0.00770364 0.00582176 0.0108155 0.00824282 0.00582958 0.00867489 0.00607127 0.00904981 0.00506403 0.00766436 0.00376702 0.00580734 0.00766436 0.0108151 0.00580734 0.00823496 0.00182808 0.00215521 0.00284947 0.00338326 0.00138612 0.000693059 0.00235243 0.00124209 0.000693059 0 0.00124209 0 0.00124209 0 0.00200355 0 0.00200355 0 0.00315818 0 0.00182146 0.00284224 0.0021485 0.00337538 0.00138629 0.00234835 0.000693145 0.0012398 0.000693145 0.0012398 0 0 0.0012398 0.00200353 0 0 0.00200353 0.00315684 0 0 0.00108422 0.00149144 0.001739 0.00225196 0.00149144 0.00182808 0.00225196 0.00284947 0.001739 0.00225196 0.00239378 0.00334956 0.00225196 0.00284947 0.00334956 0.00430331 0.00107954 0.00173666 0.00148621 0.00224646 0.00173666 0.00239378 0.00224646 0.00334698 0.00148621 0.00224646 0.00182146 0.00284224 0.00224646 0.00334698 0.00284224 0.00429905 0.00239378 0.00334956 0.00334698 0.00472299 0.00334956 0.00430331 0.00472299 0.00624676 0.00334698 0.00472299 0.00429905 0.00624513 0.00472299 0.00624676 0.00624513 0.00841174 0 0 0.00038958 0.000326593 0 0 0.000326593 0.000373544 0.00038958 0.000326593 0.00077916 0.000827521 0.000326593 0.000373544 0.000827521 0.000747089 0.000641631 0.000710395 0.0010936 0.00127553 0.000710395 0.00077916 0.00127553 0.00136192 0.0010936 0.00127553 0.00182808 0.00215521 0.00127553 0.00136192 0.00215521 0.00236784 0.00077916 0.000827521 0.00136192 0.0014069 0.000827521 0.000747089 0.0014069 0.00129549 0.00136192 0.0014069 0.00236784 0.00246337 0.0014069 0.00129549 0.00246337 0.00228617 0.000747089 0.000589645 0.00129549 0.00112145 0.000589645 0.000432201 0.00112145 0.000909159 0.00129549 0.00112145 0.00228617 0.00201846 0.00112145 0.000909159 0.00201846 0.00138612 0.00014723 0.000398238 0.000184954 0.000376688 0.000398238 0.000649246 0.000376688 0.000781279 0.000184954 0.000376688 0.000222678 0.000399427 0.000376688 0.000781279 0.000399427 0.000829834 0.000649246 0.00109311 0.000781279 0.00127266 0.00109311 0.00182146 0.00127266 0.0021485 0.000781279 0.00127266 0.000829834 0.0013623 0.00127266 0.0021485 0.0013623 0.00236194 0.000222678 0.000399427 0.000213593 0.000409585 0.000399427 0.000829834 0.000409585 0.00085059 0.000213593 0.000409585 0.000204507 0.000372672 0.000409585 0.00085059 0.000372672 0.000785428 0.000829834 0.0013623 0.00085059 0.00140839 0.0013623 0.00236194 0.00140839 0.00245809 0.00085059 0.00140839 0.000785428 0.00129891 0.00140839 0.00245809 0.00129891 0.00228116 0.000204507 0.000372672 0.000155953 0.000316107 0.000372672 0.000785428 0.000316107 0.000685259 0.000155953 0.000316107 0.000107399 0.000266318 0.000316107 0.000685259 0.000266318 0.000425237 0.000785428 0.00129891 0.000685259 0.00111999 0.00129891 0.00228116 0.00111999 0.00201424 0.000685259 0.00111999 0.000425237 0.000905763 0.00111999 0.00201424 0.000905763 0.00138629 0.000392144 0.000516887 0.000738183 0.000896383 0.000516887 0.000641631 0.000896383 0.0010936 0.000738183 0.000896383 0.00108422 0.00149144 0.000896383 0.0010936 0.00149144 0.00182808 0.000401779 0.000740659 0.000525513 0.000892497 0.000740659 0.00107954 0.000892497 0.00148621 0.000525513 0.000892497 0.000649246 0.00109311 0.000892497 0.00148621 0.00109311 0.00182146 0.0121912 0.011719 0.0138407 0.0131501 0.011719 0.0108155 0.0131501 0.012288 0.0138407 0.0131501 0.0154901 0.0147051 0.0131501 0.012288 0.0147051 0.0136124 0.0108155 0.00952916 0.012288 0.0109129 0.00952916 0.00824282 0.0109129 0.00942003 0.012288 0.0109129 0.0136124 0.0123798 0.0109129 0.00942003 0.0123798 0.0104322 0.0154901 0.0147051 0.0166773 0.0158843 0.0166773 0.0158843 0.0178644 0.0169801 0.0178644 0.0169801 0.0184423 0.0175886 0.00336751 0 0.003488 0 0.003488 0 0.0035886 0 0.0035886 0 0.00356924 0 0.00356924 0 0.00352811 0 0.0121969 0.0138527 0.0117149 0.0131584 0.0138527 0.0155086 0.0131584 0.014747 0.0117149 0.0131584 0.0108151 0.0122955 0.0131584 0.014747 0.0122955 0.0136212 0.0155086 0.0167088 0.014747 0.0159203 0.0108151 0.0122955 0.00952501 0.0109143 0.0122955 0.0136212 0.0109143 0.0123821 0.00952501 0.0109143 0.00823496 0.0094193 0.0109143 0.0123821 0.0094193 0.0104322 0.0178311 0.0184813 0.0170107 0.0175922 0.00336741 0.00348794 0 0 0.00348794 0.00358857 0 0 0.00358857 0.00356922 0 0 0.00356922 0.00352811 0 0 0.00352811 0 0.00336418 0 0.00336418 0 0.00317672 0 0.00317672 0 0.00282737 0 0.00282737 0 0.00248139 0 0.00352811 0.00336418 0 0 0.00336418 0.00317672 0 0 0.00317672 0.00282737 0 0 0.00282737 0.00248139 0 0 0.0136124 0.0123798 0.0149204 0.0135613 0.0123798 0.0104322 0.0135613 0.0114317 0.0149204 0.0135613 0.0156953 0.0142592 0.0135613 0.0114317 0.0142592 0.0119895 0.0156953 0.0142592 0.016493 0.0149745 0.0142592 0.0119895 0.0149745 0.0125774 0.016493 0.0149745 0.016697 0.0151892 0.0149745 0.0125774 0.0151892 0.0127314 0.0119895 0.00976746 0.0125774 0.0102111 0.00976746 0.00661304 0.0102111 0.00693145 0.0125774 0.0102111 0.0127314 0.0103217 0.0102111 0.00693145 0.0103217 0.00699756 0.0127314 0.0103217 0.0128688 0.0104203 0.0103217 0.00699756 0.0104203 0.00706154 0.0128688 0.0104203 0.0125521 0.0101573 0.0104203 0.00706154 0.0101573 0.00687299 0.0136212 0.0149349 0.0123821 0.0135645 0.0149349 0.0157065 0.0135645 0.0142622 0.0123821 0.0135645 0.0104322 0.0114322 0.0135645 0.0142622 0.0114322 0.0119901 0.0157065 0.016498 0.0142622 0.0149765 0.016498 0.0166991 0.0149765 0.0151901 0.0142622 0.0149765 0.0119901 0.0125779 0.0149765 0.0151901 0.0125779 0.0127317 0.0119901 0.0125779 0.00976738 0.0102111 0.0125779 0.0127317 0.0102111 0.0103217 0.00976738 0.0102111 0.00661288 0.00693138 0.0102111 0.0103217 0.00693138 0.00699752 0.0127317 0.0128689 0.0103217 0.0104204 0.0128689 0.0125521 0.0104204 0.0101573 0.0103217 0.0104204 0.00699752 0.00706154 0.0104204 0.0101573 0.00706154 0.00687298 0.0146395 0.0133454 0.0133454 0.012159 0.0133454 0.0111973 0.012159 0.0102369 0.0133454 0.012159 0.0111973 0.0102369 0.012159 0.0102369 0.0102369 0.00864084 0.0125521 0.0101573 0.0121401 0.00984063 0.0101573 0.00687299 0.00984063 0.00666797 0.0121401 0.00984063 0.0111973 0.00910448 0.00984063 0.00666797 0.00910448 0.00616889 0.0158651 0.017068 0.0156868 0.0169861 0.017068 0.0182708 0.0169861 0.0180991 0.0156868 0.0169861 0.0155086 0.0167088 0.0169861 0.0180991 0.0167088 0.0178311 0.0111973 0.00910448 0.0102369 0.00835847 0.00910448 0.00616889 0.00835847 0.00567674 0.0102369 0.00835847 0.00864084 0.00710508 0.00835847 0.00567674 0.00710508 0.00484822 0.0182455 0.0180549 0.0187973 0.0187415 0.0180549 0.0178644 0.0187415 0.0184423 0.0187973 0.0187415 0.0193492 0.0191929 0.0187415 0.0184423 0.0191929 0.0188756 0.0182708 0.01881 0.0180991 0.0187839 0.01881 0.0193492 0.0187839 0.019201 0.0180991 0.0187839 0.0178311 0.0184813 0.0187839 0.019201 0.0184813 0.0188843 0.0193492 0.0191929 0.019201 0.0191617 0.0191929 0.0188756 0.0191617 0.0188192 0.019201 0.0191617 0.0188843 0.0188211 0.0191617 0.0188192 0.0188211 0.0184861 0.00824282 0.00660102 0.00942003 0.00736148 0.00660102 0.00445025 0.00736148 0.00514888 0.00736148 0.00514888 0.00827091 0.00584751 0.0125521 0.0121402 0.0101573 0.00984065 0.0121402 0.0111973 0.00984065 0.00910449 0.0101573 0.00984065 0.00687298 0.00666797 0.00984065 0.00910449 0.00666797 0.0061689 0.00584751 0.00292376 0.00626811 0.00310075 0.00292376 0 0.00310075 0 0.00310075 0 0.00336751 0 0.00823496 0.0094193 0.00659858 0.00735988 0.00659858 0.00735988 0.00444919 0.00514808 0.00735988 0.00827033 0.00514808 0.00584697 0.0111973 0.0102369 0.00910449 0.00835847 0.0102369 0.00864084 0.00835847 0.00710508 0.00910449 0.00835847 0.0061689 0.00567675 0.00835847 0.00710508 0.00567675 0.00484822 0.00584697 0.00626781 0.00292348 0.00310057 0.00292348 0.00310057 0 0 0.00310057 0.00336741 0 0 0.00484822 0.00248139 0.00392538 0.00190492 0.00248139 0 0.00190492 0 0.00392538 0.00190492 0.00271239 0.00135619 0.00190492 0 0.00135619 0 0.00484822 0.00392538 0.00248139 0.00190492 0.00392538 0.00271239 0.00190492 0.00135619 0.00248139 0.00190492 0 0 0.00190492 0.00135619 0 0 0.00841174 0.00950711 0.0095065 0.0107938 0.00950711 0.0104527 0.0107938 0.0117696 0.0095065 0.0107938 0.0104517 0.0117692 0.0107938 0.0117696 0.0117692 0.0130866 0.00236784 0.0024156 0.00291902 0.00301531 0.0024156 0.00246337 0.00301531 0.00300837 0.00291902 0.00301531 0.00377883 0.00388727 0.00301531 0.00300837 0.00388727 0.00387613 0.00246337 0.00237477 0.00300837 0.00298384 0.00237477 0.00228617 0.00298384 0.00283778 0.00300837 0.00298384 0.00387613 0.00386441 0.00298384 0.00283778 0.00386441 0.0037113 0.00377883 0.00388727 0.00462593 0.00478178 0.00388727 0.00387613 0.00478178 0.00478626 0.00462593 0.00478178 0.00583428 0.00595662 0.00478178 0.00478626 0.00595662 0.00607897 0.00387613 0.00386441 0.00478626 0.00478126 0.00386441 0.0037113 0.00478126 0.00458301 0.00478626 0.00478126 0.00607897 0.00612648 0.00478126 0.00458301 0.00612648 0.00584082 0.00607897 0.00612648 0.00756715 0.00741475 0.00612648 0.00584082 0.00741475 0.0073187 0.00756715 0.00741475 0.00905533 0.00912723 0.00741475 0.0073187 0.00912723 0.00879658 0.00867714 0.00886623 0.0101682 0.0106189 0.00886623 0.00905533 0.0106189 0.0106596 0.0101682 0.0106189 0.0119429 0.012252 0.0106189 0.0106596 0.012252 0.012561 0.00905533 0.00912723 0.0106596 0.0107333 0.00912723 0.00879658 0.0107333 0.0103503 0.0106596 0.0107333 0.012561 0.0123761 0.0107333 0.0103503 0.0123761 0.0121912 0.00228617 0.00215232 0.00283778 0.0027094 0.00215232 0.00201846 0.0027094 0.00245212 0.00283778 0.0027094 0.0037113 0.00352572 0.0027094 0.00245212 0.00352572 0.00319168 0.00201846 0.00170229 0.00245212 0.00217561 0.00170229 0.00138612 0.00217561 0.00186927 0.00245212 0.00217561 0.00319168 0.00285455 0.00217561 0.00186927 0.00285455 0.00235243 0.0037113 0.00352572 0.00458301 0.00436562 0.00352572 0.00319168 0.00436562 0.00394054 0.00458301 0.00436562 0.00584082 0.0054694 0.00436562 0.00394054 0.0054694 0.00509799 0.00319168 0.00285455 0.00394054 0.00353589 0.00285455 0.00235243 0.00353589 0.00292659 0.00394054 0.00353589 0.00509799 0.00444258 0.00353589 0.00292659 0.00444258 0.00378716 0.00879658 0.00825011 0.0103503 0.00998199 0.00825011 0.00770364 0.00998199 0.00925957 0.0103503 0.00998199 0.0121912 0.011719 0.00998199 0.00925957 0.011719 0.0108155 0.00236194 0.00291113 0.00241002 0.00300762 0.00291113 0.0037714 0.00300762 0.00387991 0.00241002 0.00300762 0.00245809 0.00300086 0.00300762 0.00387991 0.00300086 0.00386912 0.0037714 0.00461964 0.00387991 0.00477528 0.00461964 0.00582958 0.00477528 0.00595043 0.00387991 0.00477528 0.00386912 0.00477869 0.00477528 0.00595043 0.00477869 0.00607127 0.00245809 0.00300086 0.00236963 0.00297692 0.00300086 0.00386912 0.00297692 0.00385968 0.00236963 0.00297692 0.00228116 0.00283163 0.00297692 0.00385968 0.00283163 0.00370734 0.00386912 0.00477869 0.00385968 0.00477679 0.00477869 0.00607127 0.00477679 0.00610259 0.00385968 0.00477679 0.00370734 0.00458702 0.00477679 0.00610259 0.00458702 0.0058513 0.00867489 0.0101671 0.00886235 0.0106172 0.0101671 0.011945 0.0106172 0.0122518 0.00886235 0.0106172 0.00904981 0.010656 0.0106172 0.0122518 0.010656 0.0125586 0.00607127 0.00756054 0.00610259 0.0073946 0.00756054 0.00904981 0.0073946 0.0091031 0.00610259 0.0073946 0.0058513 0.00711407 0.0073946 0.0091031 0.00711407 0.00877964 0.00904981 0.010656 0.0091031 0.0107303 0.010656 0.0125586 0.0107303 0.0123777 0.0091031 0.0107303 0.00877964 0.0103608 0.0107303 0.0123777 0.0103608 0.0121969 0.00228116 0.00283163 0.0021477 0.00270242 0.00283163 0.00370734 0.00270242 0.00351818 0.0021477 0.00270242 0.00201424 0.00244487 0.00270242 0.00351818 0.00244487 0.0031794 0.00370734 0.00458702 0.00351818 0.00436679 0.00458702 0.0058513 0.00436679 0.00560243 0.00351818 0.00436679 0.0031794 0.0039464 0.00436679 0.00560243 0.0039464 0.00506403 0.00201424 0.00244487 0.00170027 0.00217005 0.00244487 0.0031794 0.00217005 0.0028458 0.00170027 0.00217005 0.00138629 0.00186732 0.00217005 0.0028458 0.00186732 0.00234835 0.0031794 0.0039464 0.0028458 0.00352187 0.0039464 0.00506403 0.00352187 0.00441553 0.0028458 0.00352187 0.00234835 0.00291377 0.00352187 0.00441553 0.00291377 0.00376702 0.0058513 0.00711407 0.00560243 0.00681211 0.00711407 0.00877964 0.00681211 0.00844397 0.00560243 0.00681211 0.00506403 0.00636419 0.00681211 0.00844397 0.00636419 0.00766436 0.00877964 0.0103608 0.00844397 0.00998588 0.0103608 0.0121969 0.00998588 0.0117149 0.00844397 0.00998588 0.00766436 0.00923971 0.00998588 0.0117149 0.00923971 0.0108151 0.00215521 0.00226152 0.00276923 0.00283553 0.00226152 0.00236784 0.00283553 0.00291902 0.00276923 0.00283553 0.00338326 0.00364663 0.00283553 0.00291902 0.00364663 0.00377883 0.00284947 0.00311636 0.00357639 0.00386616 0.00311636 0.00338326 0.00386616 0.00417143 0.00357639 0.00386616 0.00430331 0.00485392 0.00386616 0.00417143 0.00485392 0.00524984 0.00338326 0.00364663 0.00417143 0.00446354 0.00364663 0.00377883 0.00446354 0.00462593 0.00417143 0.00446354 0.00524984 0.00564549 0.00446354 0.00462593 0.00564549 0.00583428 0.00430331 0.00485392 0.00527503 0.00580998 0.00485392 0.00524984 0.00580998 0.00631474 0.00527503 0.00580998 0.00624676 0.00705866 0.00580998 0.00631474 0.00705866 0.00769533 0.00524984 0.00564549 0.00631474 0.00680579 0.00564549 0.00583428 0.00680579 0.00725571 0.00631474 0.00680579 0.00769533 0.00832733 0.00680579 0.00725571 0.00832733 0.00867714 0.00624676 0.00705866 0.00732925 0.00823933 0.00705866 0.00769533 0.00823933 0.00898265 0.00732925 0.00823933 0.00841174 0.00950711 0.00823933 0.00898265 0.00950711 0.0104527 0.00769533 0.00832733 0.00898265 0.00975394 0.00832733 0.00867714 0.00975394 0.0101682 0.00898265 0.00975394 0.0104527 0.0111978 0.00975394 0.0101682 0.0111978 0.0119429 0.00235243 0.00179726 0.00292659 0.00231482 0.00179726 0.00124209 0.00231482 0.00162282 0.00292659 0.00231482 0.00378716 0.00303304 0.00231482 0.00162282 0.00303304 0.00200355 0.00378716 0.00303304 0.00480446 0.00371064 0.00303304 0.00200355 0.00371064 0.00258087 0.00480446 0.00371064 0.00582176 0.00469534 0.00371064 0.00258087 0.00469534 0.00315818 0.00582176 0.00469534 0.00703229 0.00556655 0.00469534 0.00315818 0.00556655 0.00372463 0.00703229 0.00556655 0.00824282 0.00660102 0.00556655 0.00372463 0.00660102 0.00445025 0.00315818 0.00157909 0.00372463 0.00195854 0.00157909 0 0.00195854 0 0.00372463 0.00195854 0.00445025 0.00222512 0.00195854 0 0.00222512 0 0.00284224 0.00357065 0.00310881 0.00385987 0.00357065 0.00429905 0.00385987 0.00484904 0.00310881 0.00385987 0.00337538 0.00416508 0.00385987 0.00484904 0.00416508 0.00524484 0.0021485 0.00276194 0.00225522 0.00282739 0.00276194 0.00337538 0.00282739 0.00363908 0.00225522 0.00282739 0.00236194 0.00291113 0.00282739 0.00363908 0.00291113 0.0037714 0.00337538 0.00416508 0.00363908 0.00445709 0.00416508 0.00524484 0.00445709 0.0056404 0.00363908 0.00445709 0.0037714 0.00461964 0.00445709 0.0056404 0.00461964 0.00582958 0.00429905 0.00527209 0.00484904 0.00580666 0.00527209 0.00624513 0.00580666 0.00705639 0.00484904 0.00580666 0.00524484 0.0063113 0.00580666 0.00705639 0.0063113 0.00769299 0.00624513 0.00732843 0.00705639 0.00823815 0.00732843 0.00841174 0.00823815 0.0095065 0.00705639 0.00823815 0.00769299 0.00898148 0.00823815 0.0095065 0.00898148 0.0104517 0.00524484 0.0063113 0.0056404 0.00680226 0.0063113 0.00769299 0.00680226 0.00832485 0.0056404 0.00680226 0.00582958 0.00725224 0.00680226 0.00832485 0.00725224 0.00867489 0.00769299 0.00898148 0.00832485 0.00975288 0.00898148 0.0104517 0.00975288 0.0111984 0.00832485 0.00975288 0.00867489 0.0101671 0.00975288 0.0111984 0.0101671 0.011945 0.00234835 0.00291377 0.00179407 0.00231061 0.00291377 0.00376702 0.00231061 0.00302677 0.00179407 0.00231061 0.0012398 0.00162167 0.00231061 0.00302677 0.00162167 0.00200353 0.00376702 0.00478718 0.00302677 0.00370597 0.00478718 0.00580734 0.00370597 0.00469127 0.00302677 0.00370597 0.00200353 0.00258019 0.00370597 0.00469127 0.00258019 0.00315684 0.00580734 0.00702115 0.00469127 0.00556267 0.00702115 0.00823496 0.00556267 0.00659858 0.00469127 0.00556267 0.00315684 0.00372321 0.00556267 0.00659858 0.00372321 0.00444919 0.00315684 0.00372321 0.00157842 0.00195818 0.00372321 0.00444919 0.00195818 0.00222459 0.00157842 0.00195818 0 0 0.00195818 0.00222459 0 0 0.0147051 0.0141587 0.0152947 0.0149207 0.0141587 0.0136124 0.0149207 0.0142664 0.0152947 0.0149207 0.0158843 0.0154656 0.0149207 0.0142664 0.0154656 0.0149204 0.0158843 0.0154656 0.0164322 0.0160288 0.0154656 0.0149204 0.0160288 0.0153078 0.0164322 0.0160288 0.0169801 0.0164039 0.0160288 0.0153078 0.0164039 0.0156953 0.0169801 0.0164039 0.0172844 0.016852 0.0164039 0.0156953 0.016852 0.0160941 0.0172844 0.016852 0.0175886 0.0171088 0.016852 0.0160941 0.0171088 0.016493 0.0184423 0.0180155 0.018659 0.0183773 0.0180155 0.0175886 0.0183773 0.0178377 0.018659 0.0183773 0.0188756 0.0184958 0.0183773 0.0178377 0.0184958 0.0179708 0.0175886 0.0171088 0.0178377 0.0173611 0.0171088 0.016493 0.0173611 0.016595 0.0178377 0.0173611 0.0179708 0.0174312 0.0173611 0.016595 0.0174312 0.016697 0.0188756 0.0184958 0.0188474 0.0185597 0.0184958 0.0179708 0.0185597 0.0180164 0.0188474 0.0185597 0.0188192 0.0184274 0.0185597 0.0180164 0.0184274 0.0178917 0.0179708 0.0174312 0.0180164 0.0175224 0.0174312 0.016697 0.0175224 0.0167882 0.0180164 0.0175224 0.0178917 0.0174357 0.0175224 0.0167882 0.0174357 0.0167584 0.0188192 0.0184274 0.0186526 0.0183729 0.0184274 0.0178917 0.0183729 0